mpprun info: Starting impi run on 1 node ( 32 rank X 2 th ) for job ID 7525674

     Program MATDYN v.6.4.1 starts on 30Mar2020 at 10:35:54 

     This program is part of the open-source Quantum ESPRESSO suite
     for quantum simulation of materials; please cite
         "P. Giannozzi et al., J. Phys.:Condens. Matter 21 395502 (2009);
         "P. Giannozzi et al., J. Phys.:Condens. Matter 29 465901 (2017);
          URL http://www.quantum-espresso.org", 
     in publications or presentations arising from this work. More details at
     http://www.quantum-espresso.org/quote

     Parallel version (MPI & OpenMP), running on      64 processor cores
     Number of MPI processes:                32
     Threads/MPI process:                     2

     MPI processes distributed on     1 nodes
     R & G space division:  proc/nbgrp/npool/nimage =      32
     Message from routine matdyn:
     Z* not found in file C.fc, TO-LO splitting at q=0 will be absent!
     A direction for q was not specified:TO-LO splitting will be absent
     Message from routine matdyn:
     Z* not found in file C.fc, TO-LO splitting at q=0 will be absent!
     A direction for q was not specified:TO-LO splitting will be absent
 
  Gamma lines for all modes [Rydberg] 
 
 Broadening   0.0050
       1
 0.000033753 0.000033753 0.000033753-0.000000000 0.000000000-0.000000000
 0.000071676 0.000071676 0.000071676 0.000001192 0.000001192 0.000001192
 0.000330349 0.000000358 0.000000358 0.000000358 0.000107783 0.000107783
 0.000107783 0.000251922 0.000251922 0.000168720 0.000168720 0.000168720
       2
 0.000033268 0.000033268 0.000034159 0.000000042 0.000000359 0.000000359
 0.000071418 0.000071418 0.000071507 0.000001237 0.000001237 0.000001267
 0.000328611 0.000000633 0.000000592 0.000000592 0.000108500 0.000107180
 0.000107180 0.000250665 0.000250616 0.000168105 0.000168105 0.000167540
       3
 0.000031940 0.000031940 0.000035360 0.000000166 0.000001316 0.000001316
 0.000070613 0.000070613 0.000070998 0.000001404 0.000001404 0.000001486
 0.000323448 0.000001449 0.000001280 0.000001280 0.000110110 0.000105387
 0.000105387 0.000246917 0.000247176 0.000166268 0.000166268 0.000164070
       4
 0.000030060 0.000030060 0.000037309 0.000000366 0.000002600 0.000002600
 0.000069177 0.000069177 0.000070141 0.000001774 0.000001774 0.000001837
 0.000315011 0.000002779 0.000002384 0.000002384 0.000111536 0.000102452
 0.000102452 0.000240750 0.000242489 0.000163223 0.000163223 0.000158517
       5
 0.000027931 0.000027931 0.000039927 0.000000634 0.000003937 0.000003937
 0.000067033 0.000067033 0.000068923 0.000002425 0.000002425 0.000002297
 0.000303544 0.000004577 0.000003838 0.000003838 0.000111959 0.000098456
 0.000098456 0.000232280 0.000237090 0.000158999 0.000158999 0.000151201
       6
 0.000025781 0.000025781 0.000043111 0.000000955 0.000005141 0.000005141
 0.000064162 0.000064162 0.000067330 0.000003374 0.000003374 0.000002838
 0.000289365 0.000006782 0.000005555 0.000005555 0.000111017 0.000093509
 0.000093509 0.000221666 0.000230993 0.000153633 0.000153633 0.000142524
       7
 0.000023748 0.000023748 0.000046731 0.000001312 0.000006115 0.000006115
 0.000060630 0.000060630 0.000065346 0.000004559 0.000004559 0.000003425
 0.000272855 0.000009315 0.000007426 0.000007426 0.000108652 0.000087750
 0.000087750 0.000209110 0.000223919 0.000147176 0.000147176 0.000132919
       8
 0.000021910 0.000021910 0.000050643 0.000001686 0.000006829 0.000006829
 0.000056566 0.000056566 0.000062958 0.000005856 0.000005856 0.000004020
 0.000254430 0.000012079 0.000009327 0.000009327 0.000104935 0.000081345
 0.000081345 0.000194851 0.000215525 0.000139690 0.000139690 0.000122791
       9
 0.000020308 0.000020308 0.000054689 0.000002055 0.000007285 0.000007285
 0.000052126 0.000052126 0.000060158 0.000007118 0.000007118 0.000004580
 0.000234525 0.000014964 0.000011121 0.000011121 0.000099989 0.000074476
 0.000074476 0.000179164 0.000205542 0.000131251 0.000131251 0.000112470
      10
 0.000018963 0.000018963 0.000058703 0.000002395 0.000007503 0.000007503
 0.000047456 0.000047456 0.000056943 0.000008216 0.000008216 0.000005064
 0.000213573 0.000017843 0.000012664 0.000012664 0.000093954 0.000067341
 0.000067341 0.000162352 0.000193838 0.000121946 0.000121946 0.000102187
      11
 0.000017881 0.000017881 0.000062523 0.000002685 0.000007508 0.000007508
 0.000042673 0.000042673 0.000053321 0.000009054 0.000009054 0.000005433
 0.000191989 0.000020576 0.000013825 0.000013825 0.000086986 0.000060134
 0.000060134 0.000144745 0.000180420 0.000111877 0.000111877 0.000092077
      12
 0.000017062 0.000017062 0.000065989 0.000002903 0.000007329 0.000007329
 0.000037864 0.000037864 0.000049311 0.000009573 0.000009573 0.000005651
 0.000170158 0.000023009 0.000014492 0.000014492 0.000079257 0.000053032
 0.000053032 0.000126691 0.000165409 0.000101158 0.000101158 0.000082194
      13
 0.000016500 0.000016500 0.000068956 0.000003031 0.000006988 0.000006988
 0.000033095 0.000033095 0.000044945 0.000009745 0.000009745 0.000005690
 0.000148427 0.000070947 0.000024978 0.000014595 0.000014595 0.000046174
 0.000046174 0.000108556 0.000149012 0.000089915 0.000089915 0.000072545
      14
 0.000016181 0.000016181 0.000071296 0.000003057 0.000006510 0.000006510
 0.000028416 0.000028416 0.000040267 0.000009562 0.000009562 0.000005532
 0.000127100 0.000062248 0.000026307 0.000014116 0.000014116 0.000039646
 0.000039646 0.000090713 0.000131485 0.000078287 0.000078287 0.000063110
      15
 0.000016087 0.000016087 0.000072906 0.000005912 0.000005912 0.000002974
 0.000023868 0.000023868 0.000035340 0.000009035 0.000009035 0.000005168
 0.000106435 0.000053354 0.000026813 0.000013098 0.000013098 0.000033476
 0.000033476 0.000073536 0.000113109 0.000066421 0.000066421 0.000053864
      16
 0.000016197 0.000016197 0.000073708 0.000005210 0.000005210 0.000002781
 0.000019491 0.000019491 0.000030236 0.000008181 0.000008181 0.000004607
 0.000086644 0.000044451 0.000011638 0.000011638 0.000026312 0.000027636
 0.000027636 0.000057393 0.000094178 0.000054476 0.000054476 0.000044791
      17
 0.000016485 0.000016485 0.000073657 0.000004417 0.000004417 0.000002487
 0.000015322 0.000015322 0.000025045 0.000007027 0.000007027 0.000003868
 0.000067895 0.000035713 0.000009867 0.000009867 0.000024624 0.000022057
 0.000022057 0.000042634 0.000074982 0.000042613 0.000042613 0.000035888
      18
 0.000016923 0.000016923 0.000072742 0.000003544 0.000003544 0.000002110
 0.000011397 0.000011397 0.000019866 0.000005605 0.000005605 0.000002988
 0.000050311 0.000027290 0.000007935 0.000007935 0.000021583 0.000016652
 0.000016652 0.000029580 0.000055806 0.000030998 0.000030998 0.000027169
      19
 0.000017480 0.000017480 0.000070985 0.000002599 0.000002599 0.000001682
 0.000007753 0.000007753 0.000014805 0.000003950 0.000003950 0.000002019
 0.000033973 0.000019306 0.000005988 0.000005988 0.000017053 0.000011335
 0.000011335 0.000018503 0.000036921 0.000019795 0.000019795 0.000018666
      20
 0.000018127 0.000018127 0.000068446 0.000001588 0.000001588 0.000001243
 0.000004424 0.000004424 0.000009969 0.000002104 0.000002104 0.000018930
 0.000001025 0.000011853 0.000004151 0.000004151 0.000010948 0.000006037
 0.000006037 0.000009610 0.000018587 0.000009166 0.000009166 0.000010430
      21
 0.000018833 0.000018833 0.000065219 0.000000519 0.000000519 0.000000850
 0.000001441 0.000001441 0.000005447 0.000005208 0.000000113 0.000000113
 0.000000081 0.000004991 0.000002520 0.000002520 0.000003254 0.000000718
 0.000000718 0.000003016 0.000001046-0.000000740-0.000000740 0.000002523
      22
 0.000019567 0.000019567 0.000061432-0.000000600-0.000000600 0.000000574
-0.000001169-0.000001169 0.000001278-0.000007155-0.000001973-0.000001973
-0.000000735-0.000001255 0.000001157 0.000001157-0.000005941-0.000001274
-0.000004627-0.000004627-0.000015477-0.000009790-0.000009790-0.000004979
      23
 0.000020301 0.000020301 0.000057247-0.000001761-0.000001761 0.000000499
-0.000003387-0.000003387-0.000002622-0.000018041-0.000004097-0.000004097
-0.000001349-0.000006890 0.000000092 0.000000092-0.000016427-0.000003388
-0.000009964-0.000009964-0.000030776-0.000017871-0.000017871-0.000011992
      24
 0.000021010 0.000021010 0.000052850-0.000002952-0.000002952 0.000000720
-0.000005203-0.000005203-0.000006578-0.000027132-0.000006195-0.000006195
-0.000001701-0.000011941-0.000000679-0.000000679-0.000027851-0.000003588
-0.000015222-0.000015222-0.000044664-0.000024899-0.000024899-0.000018428
      25
 0.000021668 0.000021668 0.000048448-0.000004155-0.000004155 0.000001331
-0.000006615-0.000006615-0.000011318-0.000033745-0.000008201-0.000008201
-0.000001762-0.000016446-0.000001181-0.000001181-0.000039720-0.000002267
-0.000020291-0.000020291-0.000056976-0.000030823-0.000030823-0.000024199
      26
 0.000022257 0.000022257 0.000044261-0.000005345-0.000005345 0.000002405
-0.000007636-0.000007636-0.000017849-0.000036943-0.000010043-0.000010043
-0.000020436-0.000001542-0.000001462-0.000001462-0.000051415 0.000000085
-0.000025026-0.000025026-0.000067568-0.000035634-0.000035634-0.000029216
      27
 0.000022757 0.000022757 0.000040507-0.000006485-0.000006485 0.000003945
-0.000008295-0.000008295-0.000026524-0.000036444-0.000011652-0.000011652
-0.000023908-0.000001100-0.000001579-0.000001579-0.000062234 0.000002929
-0.000029252-0.000029252-0.000076318-0.000039362-0.000039362-0.000033402
      28
 0.000023154 0.000023154 0.000037394-0.000007518-0.000007518 0.000005818
-0.000008643-0.000008643-0.000036024-0.000033569-0.000012961-0.000012961
-0.000026800-0.000000547-0.000001592-0.000001592-0.000071452 0.000005731
-0.000032772-0.000032772-0.000083128-0.000042077-0.000042077-0.000036686
      29
 0.000023438 0.000023438 0.000035097-0.000008360-0.000008360 0.000007688
-0.000008765-0.000008765-0.000044178-0.000030362-0.000013914-0.000013914
-0.000028983-0.000000022-0.000001559-0.000001559-0.000078393 0.000008021
-0.000035390-0.000035390-0.000087920-0.000043872-0.000043872-0.000039011
      30
 0.000023601 0.000023601 0.000033753-0.000008897-0.000008897 0.000009039
-0.000008771-0.000008771-0.000049319-0.000028202-0.000014467-0.000014467
-0.000030295 0.000000333-0.000001523-0.000001523-0.000082512 0.000009441
-0.000036934-0.000036934-0.000090642-0.000044844-0.000044844-0.000040337
      31
 0.000023639 0.000023639 0.000033442-0.000009028-0.000009028 0.000009384
-0.000008764-0.000008764-0.000050544-0.000027682-0.000014595-0.000014595
-0.000030603 0.000000421-0.000001514-0.000001514-0.000083471 0.000009778
-0.000037293-0.000037293-0.000091263-0.000045060-0.000045060-0.000040641
      32
 0.000023549 0.000023549 0.000034183-0.000008721-0.000008721 0.000008583
-0.000008775-0.000008775-0.000047646-0.000028911-0.000014290-0.000014290
-0.000029872 0.000000215-0.000001536-0.000001536-0.000081189 0.000008981
-0.000036439-0.000036439-0.000089777-0.000044539-0.000044539-0.000039916
      33
 0.000023336 0.000023336 0.000035931-0.000008044-0.000008044 0.000006951
-0.000008736-0.000008736-0.000041118-0.000031610-0.000013569-0.000013569
-0.000028182-0.000000225-0.000001575-0.000001575-0.000075857 0.000007169
-0.000034436-0.000034436-0.000086200-0.000043240-0.000043240-0.000038175
      34
 0.000023004 0.000023004 0.000038583-0.000007112-0.000007112 0.000005025
-0.000008533-0.000008533-0.000032163-0.000034901-0.000012463-0.000012463
-0.000025689-0.000000779-0.000001595-0.000001595-0.000067906 0.000004618
-0.000031425-0.000031425-0.000080572-0.000041079-0.000041079-0.000035450
      35
 0.000022563 0.000022563 0.000041982-0.000006026-0.000006026 0.000003261
-0.000008065-0.000008065-0.000022748-0.000037047-0.000011024-0.000011024
-0.000022548-0.000001302-0.000001547-0.000001547-0.000057944 0.000001737
-0.000027590-0.000027590-0.000072955-0.000037958-0.000037958-0.000031789
      36
 0.000022025 0.000022025 0.000045940-0.000004860-0.000004860 0.000001906
-0.000007263-0.000007263-0.000014896-0.000036092-0.000009311-0.000009311
-0.000001663-0.000018859-0.000001370-0.000001370-0.000046677-0.000000972
-0.000023132-0.000023132-0.000063435-0.000033792-0.000033792-0.000027252
      37
 0.000021405 0.000021405 0.000050242-0.000003661-0.000003661 0.000001027
-0.000006083-0.000006083-0.000009212-0.000031389-0.000007393-0.000007393
-0.000001773-0.000014659-0.000001005-0.000001005-0.000034829-0.000002964
-0.000018240-0.000018240-0.000052120-0.000028525-0.000028525-0.000021915
      38
 0.000020724 0.000020724 0.000054668-0.000002461-0.000002461 0.000000587
-0.000004506-0.000004506-0.000004910-0.000023650-0.000005341-0.000005341
-0.000001591-0.000009935-0.000000397-0.000000397-0.000023075-0.000003715
-0.000013078-0.000013078-0.000039142-0.000022144-0.000022144-0.000015861
      39
 0.000020002 0.000020002 0.000059003-0.000001280-0.000001280 0.000000500
-0.000002525-0.000002525-0.000001040-0.000013763-0.000003224-0.000003224
-0.000001126-0.000004649 0.000000493 0.000000493-0.000011984-0.000002769
-0.000007777-0.000007777-0.000024654-0.000014676-0.000014676-0.000009177
      40
 0.000019264 0.000019264 0.000063045-0.000000135-0.000000135 0.000000669
-0.000000143-0.000000143 0.000002949-0.000002247-0.000001109-0.000001109
-0.000000421 0.000001235 0.000001682 0.000001682-0.000001994 0.000000214
-0.000002430-0.000002430-0.000008828-0.000006185-0.000006185-0.000001952
      41
 0.000018538 0.000018538 0.000066620 0.000000965 0.000000965 0.000001002
 0.000002623 0.000002623 0.000007262 0.000010681 0.000000945 0.000000945
 0.000000458 0.000007735 0.000003160 0.000003160 0.000006603 0.000002906
 0.000002906 0.000005443 0.000008139 0.000003231 0.000003231 0.000005726
      42
 0.000017853 0.000017853 0.000069578 0.000002010 0.000002010 0.000001421
 0.000005751 0.000005751 0.000011921 0.000002883 0.000002883 0.000024949
 0.000001432 0.000014845 0.000004886 0.000004886 0.000013649 0.000008213
 0.000008213 0.000012988 0.000026034 0.000013452 0.000013452 0.000013777
      43
 0.000017239 0.000017239 0.000071805 0.000002995 0.000002995 0.000001862
 0.000009213 0.000009213 0.000016862 0.000004655 0.000004655 0.000002424
 0.000040528 0.000022525 0.000006781 0.000006781 0.000019101 0.000013512
 0.000013512 0.000022798 0.000044624 0.000024335 0.000024335 0.000022129
      44
 0.000016727 0.000016727 0.000073222 0.000003912 0.000003912 0.000002273
 0.000012977 0.000012977 0.000021984 0.000006219 0.000006219 0.000003364
 0.000057385 0.000030702 0.000008739 0.000008739 0.000023006 0.000018856
 0.000018856 0.000034716 0.000063660 0.000035727 0.000035727 0.000030725
      45
 0.000016347 0.000016347 0.000073783 0.000004753 0.000004753 0.000002619
 0.000017006 0.000017006 0.000027181 0.000007535 0.000007535 0.000004191
 0.000075460 0.000039271 0.000010622 0.000010622 0.000025472 0.000024321
 0.000024321 0.000048506 0.000082879 0.000047464 0.000047464 0.000039523
      46
 0.000016129 0.000016129 0.000073480 0.000005510 0.000005510 0.000002873
 0.000021266 0.000021266 0.000032348 0.000008570 0.000008570 0.000004861
 0.000094654 0.000048097 0.000026652 0.000012283 0.000012283 0.000029998
 0.000029998 0.000063874 0.000102001 0.000059381 0.000059381 0.000048497
      47
 0.000016100 0.000016100 0.000072339 0.000006171 0.000006171 0.000003021
 0.000025717 0.000025717 0.000037389 0.000009292 0.000009292 0.000005342
 0.000114826 0.000057018 0.000026716 0.000013576 0.000013576 0.000035967
 0.000035967 0.000080485 0.000120739 0.000071313 0.000071313 0.000057639
      48
 0.000016284 0.000016284 0.000070418 0.000003060 0.000006722 0.000006722
 0.000030324 0.000030324 0.000042222 0.000009680 0.000009680 0.000005621
 0.000135791 0.000065855 0.000025850 0.000014382 0.000014382 0.000042284
 0.000042284 0.000097981 0.000138802 0.000083099 0.000083099 0.000066960
      49
 0.000016701 0.000016701 0.000067807 0.000002990 0.000007146 0.000007146
 0.000035045 0.000035045 0.000046778 0.000009717 0.000009717 0.000005697
 0.000157318 0.000024237 0.000074417 0.000014623 0.000014623 0.000048954
 0.000048954 0.000115989 0.000155898 0.000094586 0.000094586 0.000076480
      50
 0.000017367 0.000017367 0.000064618 0.000002823 0.000007423 0.000007423
 0.000039837 0.000039837 0.000051003 0.000009401 0.000009401 0.000005582
 0.000179130 0.000022056 0.000014284 0.000014284 0.000082512 0.000055926
 0.000055926 0.000134136 0.000171754 0.000105630 0.000105630 0.000086224
      51
 0.000018293 0.000018293 0.000060989 0.000002574 0.000007530 0.000007530
 0.000044645 0.000044645 0.000054857 0.000008746 0.000008746 0.000005298
 0.000200904 0.000019481 0.000013403 0.000013403 0.000089950 0.000063091
 0.000063091 0.000152049 0.000186132 0.000116097 0.000116097 0.000096203
      52
 0.000019484 0.000019484 0.000057069 0.000002261 0.000007441 0.000007441
 0.000049394 0.000049394 0.000058313 0.000007792 0.000007792 0.000004877
 0.000222277 0.000016670 0.000012069 0.000012069 0.000096554 0.000070291
 0.000070291 0.000169372 0.000198855 0.000125865 0.000125865 0.000106395
      53
 0.000020936 0.000020936 0.000053021 0.000001906 0.000007128 0.000007128
 0.000053985 0.000053985 0.000061358 0.000006613 0.000006613 0.000004357
 0.000242850 0.000013772 0.000010406 0.000010406 0.000102160 0.000077340
 0.000077340 0.000185760 0.000209845 0.000134826 0.000134826 0.000116714
      54
 0.000022638 0.000022638 0.000049011 0.000001532 0.000006568 0.000006568
 0.000058289 0.000058289 0.000063988 0.000005319 0.000005319 0.000003778
 0.000262200 0.000010923 0.000008552 0.000008552 0.000106618 0.000084042
 0.000084042 0.000200896 0.000219151 0.000142884 0.000142884 0.000126990
      55
 0.000024563 0.000024563 0.000045200 0.000001162 0.000005746 0.000005746
 0.000062153 0.000062153 0.000066209 0.000004051 0.000004051 0.000003181
 0.000279891 0.000008241 0.000006647 0.000006647 0.000109793 0.000090203
 0.000090203 0.000214486 0.000226965 0.000149956 0.000149956 0.000136949
      56
 0.000026656 0.000026656 0.000041743 0.000000817 0.000004670 0.000004670
 0.000065427 0.000065427 0.000068030 0.000002950 0.000002950 0.000002608
 0.000295493 0.000005832 0.000004824 0.000004824 0.000111577 0.000095647
 0.000095647 0.000226272 0.000233595 0.000155972 0.000155972 0.000146224
      57
 0.000028819 0.000028819 0.000038777 0.000000517 0.000003396 0.000003396
 0.000068002 0.000068002 0.000069468 0.000002121 0.000002121 0.000002096
 0.000308601 0.000003785 0.000003204 0.000003204 0.000111939 0.000100219
 0.000100219 0.000236028 0.000239383 0.000160874 0.000160874 0.000154394
      58
 0.000030878 0.000030878 0.000036423 0.000000275 0.000002052 0.000002052
 0.000069848 0.000069848 0.000070536 0.000001592 0.000001592 0.000001678
 0.000318858 0.000002173 0.000001884 0.000001884 0.000111037 0.000103791
 0.000103791 0.000243569 0.000244517 0.000164618 0.000164618 0.000161031
      59
 0.000032571 0.000032571 0.000034773 0.000000105 0.000000866 0.000000866
 0.000071015 0.000071015 0.000071249 0.000001316 0.000001316 0.000001379
 0.000325975 0.000001050 0.000000945 0.000000945 0.000109409 0.000106265
 0.000106265 0.000248754 0.000248788 0.000167170 0.000167170 0.000165762
      60
 0.000033582 0.000033582 0.000033894 0.000000015 0.000000127 0.000000127
 0.000071587 0.000071587 0.000071617 0.000001207 0.000001207 0.000001218
 0.000329744 0.000000454 0.000000439 0.000000439 0.000108044 0.000107573
 0.000107573 0.000251485 0.000251458 0.000168506 0.000168506 0.000168308
      61
 0.000033669 0.000033669 0.000033821 0.000000007 0.000000062 0.000000062
 0.000071633 0.000071633 0.000071647 0.000001199 0.000001199 0.000001205
 0.000330055 0.000000404 0.000000398 0.000000398 0.000107912 0.000107681
 0.000107681 0.000251709 0.000251695 0.000168616 0.000168616 0.000168520
      62
 0.000035765 0.000032355 0.000031853-0.000000099 0.000000374 0.000001471
 0.000071106 0.000071129 0.000071210 0.000000682 0.000001506 0.000001757
 0.000326290 0.000001334 0.000001116 0.000000374 0.000107976 0.000107408
 0.000106741 0.000248951 0.000248956 0.000167060 0.000166573 0.000166903
      63
 0.000043571 0.000027012 0.000025961-0.000000101 0.000000754 0.000006160
 0.000069238 0.000069296 0.000069587-0.000001126 0.000002857 0.000003386
 0.000312635 0.000004546 0.000004180 0.000000220 0.000106427 0.000105465
 0.000103564 0.000239634 0.000239991 0.000160803 0.000159702 0.000161182
      64
 0.000057175 0.000018797 0.000017087-0.000000290 0.000000774 0.000012763
 0.000066374 0.000066462 0.000066810-0.000003864 0.000004871 0.000005663
 0.000290643 0.000010176 0.000009846-0.000000278 0.000100294 0.000099481
 0.000098247 0.000226429 0.000227364 0.000150526 0.000148840 0.000152250
      65
 0.000075559 0.000009071 0.000006652-0.000000918 0.000000226 0.000020230
 0.000063086 0.000063162 0.000062913-0.000006973 0.000006927 0.000007928
 0.000262666 0.000018441 0.000018456-0.000001411 0.000087694 0.000087388
 0.000091167 0.000211417 0.000212788 0.000137649 0.000135309 0.000141138
      66
 0.000097131-0.000000804-0.000003916-0.000001988-0.000000840 0.000027787
 0.000059894 0.000059912 0.000057986-0.000009834 0.000008435 0.000009581
 0.000231428 0.000028893 0.000029537-0.000003440 0.000068727 0.000069106
 0.000082868 0.000195538 0.000197012 0.000124075 0.000120694 0.000128816
      67
 0.000120173-0.000009522-0.000013282-0.000003334-0.000002228 0.000034861
 0.000057074 0.000057004 0.000052235-0.000011892 0.000009066 0.000010305
 0.000199606 0.000040020 0.000038869-0.000006489 0.000046817 0.000047639
 0.000073979 0.000179161 0.000180396 0.000112404 0.000115430 0.000106531
      68
 0.000143139-0.000015895-0.000020248-0.000004732-0.000003703 0.000041069
 0.000054650 0.000054479 0.000046078-0.000012781 0.000008811 0.000010107
 0.000169448 0.000045386 0.000044205-0.000010455 0.000027236 0.000027951
 0.000065085 0.000162574 0.000163321 0.000105438 0.000100267 0.000093990
      69
 0.000164790-0.000018940-0.000023835-0.000005990-0.000005065 0.000046230
 0.000052469 0.000052197 0.000040187-0.000012376 0.000007949 0.000009271
 0.000142472 0.000044121 0.000043187-0.000014982 0.000012452 0.000012798
 0.000056618 0.000146190 0.000146315 0.000100385 0.000087234 0.000083694
      70
 0.000184199-0.000017998-0.000023390-0.000006975-0.000006174 0.000050376
 0.000050293 0.000049924 0.000035418-0.000010805 0.000006985 0.000008303
 0.000119291 0.000037882 0.000037198-0.000019493 0.000001802 0.000001954
 0.000048761 0.000130495 0.000129965 0.000095277 0.000078426 0.000075732
      71
 0.000200670-0.000012839-0.000018680-0.000007623-0.000006960 0.000053767
 0.000047869 0.000047408 0.000032617-0.000008388 0.000006526 0.000007801
 0.000099611 0.000028826 0.000028338-0.000023146-0.000005239-0.000006069
 0.000041198 0.000115900 0.000114741 0.000090901 0.000072422 0.000069810
      72
 0.000213607-0.000003731-0.000009972-0.000007931-0.000007413 0.000056873
 0.000044985 0.000044435-0.000005553 0.000032345 0.000006852 0.000008388
 0.000082030 0.000018779 0.000018485-0.000006240-0.000011640-0.000025469
 0.000030714 0.000102606 0.000100876 0.000087150 0.000068240 0.000065414
      73
 0.000222393 0.000008533 0.000001947-0.000007932-0.000007561 0.000060273
 0.000041500 0.000040864-0.000002745 0.000034698 0.000066180 0.000007205
 0.000008127 0.000009863 0.000009847 0.000016931-0.000014131-0.000001000
-0.000026968 0.000090573 0.000088341 0.000083311 0.000065303 0.000061916
      74
 0.000226297 0.000022670 0.000015804-0.000007672-0.000007447 0.000064298
 0.000037360 0.000036644-0.000000344 0.000039449 0.000049308 0.000006376
 0.000006961 0.000004041 0.000004383 0.000024205-0.000015244-0.000014042
-0.000025751 0.000079573 0.000076910 0.000076419 0.000065240 0.000058643
      75
 0.000224433 0.000037002 0.000029929-0.000007186-0.000007105 0.000068231
 0.000032603 0.000031818 0.000001388 0.000045603 0.000031501 0.000004423
 0.000004738 0.000001520 0.000002178 0.000022028-0.000014381-0.000015019
-0.000022555 0.000069274 0.000066246 0.000061619 0.000054906 0.000071606
      76
 0.000215805 0.000049612 0.000042411-0.000006487-0.000006548 0.000069148
 0.000027355 0.000026516 0.000002336 0.000046840 0.000002242 0.000002844
 0.000019471 0.000001267 0.000002141 0.000019102-0.000011725-0.000012888
-0.000017749 0.000059307 0.000055956 0.000054574 0.000050058 0.000067540
      77
 0.000199430 0.000051291 0.000058537-0.000005564-0.000005763 0.000049101
 0.000034768 0.000020944 0.000002534 0.000044366 0.000000511 0.000000418
 0.000016608 0.000002160 0.000003159 0.000016278-0.000007614-0.000008909
-0.000011580 0.000049287 0.000045246 0.000047697 0.000043562 0.000059614
      78
 0.000174542 0.000054771 0.000061981-0.000004388-0.000004723 0.000016449
 0.000015371 0.000045015 0.000002146 0.000045299-0.000000460-0.000000566
 0.000014283 0.000003255 0.000004300 0.000013559-0.000002541-0.000003692
 0.000038788 0.000034766-0.000005932 0.000039078 0.000035078 0.000049038
      79
 0.000140855 0.000051417 0.000058513-0.000002930-0.000003392 0.000011113
 0.000010109 0.000025554 0.000001421-0.000000596-0.000000908 0.000043146
 0.000011683 0.000003760 0.000004777 0.000010688 0.000002685 0.000002057
 0.000027463 0.000024328-0.000001767 0.000028448 0.000024547 0.000035863
      80
 0.000098813 0.000040326 0.000047236-0.000001157-0.000001732 0.000006456
 0.000005492 0.000011074 0.000000650 0.000000039-0.000000406 0.000028997
 0.000009054 0.000003059 0.000003972 0.000007230 0.000006295 0.000006623
 0.000015912 0.000013508 0.000001094 0.000016020 0.000012231 0.000020256
      81
 0.000049762 0.000021238 0.000027892 0.000000957 0.000000293 0.000002825
 0.000001852 0.000003515 0.000000113 0.000001280 0.000000744 0.000000610
 0.000006369 0.000000745 0.000001482 0.000002633 0.000005564 0.000006794
 0.000006256 0.000004496 0.000001392 0.000002331-0.000001319 0.000002703
      82
-0.000004032-0.000005422 0.000000908 0.000003436 0.000002724 0.000002019
 0.000000329-0.000000532 0.000000031 0.000002904 0.000002313-0.000040695
 0.000003290-0.000003368-0.000002867 0.000001351-0.000000282-0.000003660
-0.000001178-0.000002718-0.000001352-0.000011883-0.000015363-0.000015939
      83
-0.000059558-0.000038566-0.000032632 0.000006302 0.000005601 0.000005361
-0.000001408-0.000001506 0.000000532 0.000004697 0.000004106-0.000092423
-0.000000670-0.000009265-0.000009038-0.000007766-0.000009628-0.000012372
-0.000008530-0.000010082-0.000007235-0.000025828-0.000029102-0.000034491
      84
-0.000113401-0.000076522-0.000071067 0.000009565 0.000008950 0.000010585
-0.000001321-0.000001127 0.000001637 0.000006550 0.000006020-0.000151550
-0.000005996-0.000016759-0.000016818-0.000019015-0.000020916-0.000023695
-0.000017241-0.000018865-0.000015964-0.000038783-0.000041811-0.000051573
      85
-0.000162199-0.000117154-0.000112274 0.000013199 0.000012754 0.000016578
-0.000000275 0.000000283 0.000003258 0.000008520 0.000008090-0.000214704
-0.000013046-0.000025506-0.000025829-0.000031311-0.000033139-0.000037639
-0.000027457-0.000029136-0.000026871-0.000050188-0.000052920-0.000065788
      86
-0.000203153-0.000157999-0.000153798 0.000017077 0.000016854 0.000021900
 0.000001366 0.000002230 0.000005225 0.000010777 0.000010437-0.000278228
-0.000021947-0.000035004-0.000035534-0.000043809-0.000045472-0.000053697
-0.000038571-0.000040246-0.000038989-0.000059688-0.000062065-0.000075939
      87
-0.000234495-0.000196410-0.000192988 0.000020753 0.000020819 0.000025554
 0.000003433 0.000004369 0.000007311 0.000013413 0.000013109-0.000338221
-0.000032495-0.000044589-0.000045232-0.000055657-0.000057078-0.000070819
-0.000049637-0.000051222-0.000051160-0.000067127-0.000069084-0.000081278
      88
-0.000255860-0.000229703-0.000227139 0.000023620 0.000023663 0.000027142
 0.000006837 0.000006117 0.000009268 0.000016215 0.000015908-0.000390618
-0.000044040-0.000053447-0.000054080-0.000065989-0.000067106-0.000087349
-0.000059661-0.000061048-0.000062165-0.000072511-0.000073983-0.000081872
      89
-0.000268382-0.000255342-0.000253682 0.000025136 0.000025137 0.000027010
 0.000009632 0.000009165 0.000010863 0.000018669 0.000018385-0.000431397
-0.000055278-0.000060675-0.000061167-0.000074006-0.000074772-0.000100880
-0.000067811-0.000068874-0.000070875-0.000075896-0.000076850-0.000079271
      90
-0.000274286-0.000271185-0.000270442 0.000025782 0.000025714 0.000026184
 0.000011806 0.000011529 0.000011919 0.000020251 0.000020075-0.000457008
-0.000063932-0.000065409-0.000065651-0.000079066-0.000079455-0.000108835
-0.000073584-0.000074181-0.000076381-0.000076521-0.000077738-0.000077281
      91
-0.000275968-0.000275789-0.000275789 0.000025859 0.000025859 0.000025888
 0.000012363 0.000012363 0.000012385 0.000020680 0.000020680-0.000464981
-0.000066931-0.000067015-0.000067015-0.000080768-0.000080768-0.000110948
-0.000076378-0.000076378-0.000077996-0.000075571-0.000077130-0.000077130
      92
-0.000274946-0.000272328-0.000272328 0.000025752 0.000025752 0.000026159
 0.000011837 0.000011837 0.000012162 0.000020325 0.000020325-0.000459525
-0.000064819-0.000066020-0.000066020-0.000079737-0.000079737-0.000109521
-0.000074492-0.000074492-0.000076824-0.000076190-0.000077619-0.000077619
      93
-0.000269761-0.000257497-0.000257497 0.000025226 0.000025226 0.000026976
 0.000009724 0.000009724 0.000011217 0.000018830 0.000018830-0.000436204
-0.000056753-0.000061807-0.000061807-0.000075306-0.000075306-0.000102425
-0.000069285-0.000069285-0.000071820-0.000076740-0.000076740-0.000078815
      94
-0.000258298-0.000232627-0.000232627 0.000023912 0.000023912 0.000027240
 0.000006819 0.000006819 0.000009667 0.000016454 0.000016454-0.000397290
-0.000045706-0.000054942-0.000054942-0.000067837-0.000067837-0.000089534
-0.000061599-0.000061599-0.000063511-0.000073871-0.000073871-0.000081673
      95
-0.000238248-0.000199799-0.000199799 0.000021260 0.000021260 0.000025891
 0.000004174 0.000004174 0.000007706 0.000013675 0.000013675-0.000346226
-0.000034103-0.000046256-0.000046256-0.000057930-0.000057930-0.000073262
-0.000051887-0.000051887-0.000052767-0.000069006-0.000069006-0.000081656
      96
-0.000208284-0.000161532-0.000161532 0.000017526 0.000017526 0.000022484
 0.000002040 0.000002040 0.000005578 0.000010990 0.000010990-0.000287001
-0.000023362-0.000036662-0.000036662-0.000046360-0.000046360-0.000056112
-0.000040954-0.000040954-0.000040694-0.000062063-0.000062063-0.000076991
      97
-0.000168566-0.000120513-0.000120513 0.000013527 0.000013527 0.000017322
 0.000000218 0.000000218 0.000003544 0.000008643 0.000008643-0.000223692
-0.000014208-0.000027004-0.000027004-0.000033984-0.000033984-0.000039829
-0.000029792-0.000029792-0.000028505-0.000053021-0.000053021-0.000067456
      98
-0.000120686-0.000079405-0.000079405 0.000009758 0.000009758 0.000011321
-0.000001092-0.000001092 0.000001840 0.000006591 0.000006591-0.000160231
-0.000006898-0.000017987-0.000017987-0.000021650-0.000021650-0.000025546
-0.000019380-0.000019380-0.000017375-0.000042012-0.000042012-0.000053717
      99
-0.000067330-0.000040702-0.000040702 0.000006392 0.000006392 0.000005846
-0.000001449-0.000001449 0.000000649 0.000004688 0.000004688-0.000100311
-0.000001345-0.000010154-0.000010154-0.000010187-0.000010187-0.000013842
-0.000010412-0.000010412-0.000008304-0.000029368-0.000029368-0.000036924
     100
-0.000011812-0.000006585-0.000006585 0.000003459 0.000003459 0.000002566
-0.000000526-0.000000526 0.000000064 0.000002871 0.000002871-0.000047347
 0.000002783-0.000003884-0.000003884-0.000000578-0.000000578-0.000004803
-0.000002910-0.000002910-0.000002006-0.000015628-0.000015628-0.000018461
     101
 0.000042429 0.000021209 0.000021209 0.000000946 0.000000946 0.000001771
 0.000001771 0.000003304 0.000000076 0.000001228 0.000001228-0.000004417
 0.000005958 0.000000601 0.000000601 0.000001872 0.000005648 0.000005648
 0.000004295 0.000004295 0.000001171-0.000001499-0.000001499 0.000000282
     102
 0.000092303 0.000041509 0.000041509-0.000001177-0.000001177 0.000005319
 0.000005319 0.000009832 0.000000564-0.000000045-0.000000045 0.000025895
 0.000008677 0.000003250 0.000003250 0.000006716 0.000006677 0.000006677
 0.000013289 0.000013289 0.000001268 0.000012225 0.000012225 0.000018089
     103
 0.000135427 0.000053796 0.000053796-0.000002943-0.000002943 0.000009861
 0.000009861 0.000023343 0.000001319-0.000000731-0.000000731 0.000042040
 0.000011307 0.000004213 0.000004213 0.000010342 0.000002997 0.000002997
 0.000024354 0.000024354-0.000001304 0.000024785 0.000024785 0.000034064
     104
 0.000170326 0.000058237 0.000058237-0.000004382-0.000004382 0.000015073
 0.000015073 0.000042495 0.000002065 0.000045579-0.000000657-0.000000657
 0.000013923 0.000003865 0.000003865 0.000013332-0.000002468-0.000002468
 0.000035609 0.000035609-0.000005837 0.000035594 0.000035594 0.000047686
     105
 0.000196440 0.000055648 0.000055648-0.000005530-0.000005530 0.000020625
 0.000020625 0.000060277 0.000002511 0.000044378 0.000000258 0.000000258
 0.000016291 0.000002796 0.000002796 0.000016159-0.000007767-0.000007767
-0.000011434 0.000046204 0.000046204 0.000044347 0.000044347 0.000058793
     106
 0.000213967 0.000047396 0.000047396-0.000006421-0.000006421 0.000068788
 0.000026202 0.000026202 0.000002400 0.000046541 0.000001971 0.000001971
 0.000019233 0.000001775 0.000001774 0.000019158-0.000012091-0.000012091
-0.000017132 0.000056346 0.000056346 0.000051057 0.000051057 0.000067519
     107
 0.000223624 0.000035242 0.000035242-0.000007083-0.000007083 0.000068664
 0.000031534 0.000031534 0.000001556 0.000046374 0.000029293 0.000004227
 0.000004227 0.000001716 0.000001716 0.000022532-0.000014964-0.000014964
-0.000022041 0.000066431 0.000066431 0.000056029 0.000056029 0.000074199
     108
 0.000226377 0.000021134 0.000021134-0.000007530-0.000007530 0.000064919
 0.000036405 0.000036405-0.000000077 0.000040326 0.000046887 0.000006412
 0.000006412 0.000003716 0.000003716 0.000026389-0.000016044-0.000016044
-0.000025453 0.000076838 0.000076838 0.000079295 0.000059781 0.000059781
     109
 0.000223229 0.000007007 0.000007007-0.000007754-0.000007754 0.000060837
 0.000040679 0.000040679-0.000002402 0.000035242 0.000063981 0.000007599
 0.000007599 0.000008885 0.000008885 0.000030802-0.000015126-0.000015126
-0.000026939 0.000087934 0.000087934 0.000083342 0.000062953 0.000062953
     110
 0.000215085-0.000005425-0.000005425-0.000007723-0.000007723 0.000057367
 0.000044300 0.000044300-0.000005178 0.000032531 0.000007479 0.000007479
 0.000080220 0.000017329 0.000017329-0.000012122-0.000012122-0.000026384
 0.000035850 0.000100060 0.000100060 0.000086929 0.000066239 0.000066239
     111
 0.000202694-0.000014822-0.000014822-0.000007391-0.000007391 0.000054260
 0.000047307 0.000047307 0.000032432-0.000008038 0.000007142 0.000007142
 0.000097208 0.000027263 0.000027263-0.000023991-0.000006978-0.000006978
 0.000041634 0.000113462 0.000113462 0.000090688 0.000070330 0.000070330
     112
 0.000186687-0.000020322-0.000020322-0.000006725-0.000006725 0.000050945
 0.000049831 0.000049831 0.000034909-0.000010540 0.000007524 0.000007524
 0.000116484 0.000036466 0.000036466-0.000020224 0.000000495 0.000000495
 0.000048253 0.000128203 0.000128203 0.000095256 0.000075877 0.000075877
     113
 0.000167652-0.000021588-0.000021588-0.000005725-0.000005725 0.000046926
 0.000052075 0.000052075 0.000039457-0.000012250 0.000008462 0.000008462
 0.000139161 0.000043083 0.000043083-0.000015713 0.000010881 0.000010881
 0.000055743 0.000144100 0.000144100 0.000101201 0.000083431 0.000083431
     114
 0.000146266-0.000018787-0.000018787-0.000004447-0.000004447 0.000041912
 0.000054290 0.000054290 0.000045252-0.000012826 0.000009363 0.000009363
 0.000165647 0.000045022 0.000045022-0.000011128 0.000025267 0.000025267
 0.000064023 0.000160738 0.000160738 0.000108893 0.000093330 0.000093330
     115
 0.000123416-0.000012521-0.000012521-0.000003018-0.000003018 0.000035840
 0.000056717 0.000056717 0.000051425-0.000012113 0.000009698 0.000009698
 0.000195456 0.000040542 0.000040542-0.000007049 0.000044359 0.000044359
 0.000072839 0.000177583 0.000177583 0.000118373 0.000105539 0.000105539
     116
 0.000100298-0.000003733-0.000003733-0.000001628-0.000001628 0.000028861
 0.000059521 0.000059521 0.000057269-0.000010197 0.000009151 0.000009151
 0.000227187 0.000030734 0.000030734-0.000003856 0.000066067 0.000066067
 0.000081752 0.000194147 0.000194147 0.000119489 0.000119489 0.000129256
     117
 0.000078423 0.000006408 0.000006408-0.000000504-0.000000504 0.000021331
 0.000062701 0.000062701 0.000062331-0.000007415 0.000007682 0.000007682
 0.000258676 0.000019804 0.000019804-0.000001685 0.000085372 0.000085372
 0.000090178 0.000210081 0.000210081 0.000134054 0.000134054 0.000140724
     118
 0.000059499 0.000016596 0.000016596 0.000000157 0.000000157 0.000013797
 0.000066009 0.000066009 0.000066377-0.000004301 0.000005571 0.000005571
 0.000287280 0.000010984 0.000010984-0.000000438 0.000098621 0.000098621
 0.000097480 0.000225050 0.000225050 0.000147718 0.000147718 0.000151621
     119
 0.000045162 0.000025444 0.000025444 0.000000302 0.000000302 0.000007003
 0.000068952 0.000068952 0.000069308-0.000001475 0.000003385 0.000003385
 0.000310255 0.000004965 0.000004965 0.000000133 0.000105430 0.000105430
 0.000103087 0.000238320 0.000238320 0.000158881 0.000158881 0.000160651
     120
 0.000036533 0.000031555 0.000031555 0.000000126 0.000000126 0.000001956
 0.000070966 0.000070966 0.000071082 0.000000490 0.000001776 0.000001776
 0.000325174 0.000001495 0.000001495 0.000000323 0.000107568 0.000107568
 0.000106593 0.000248156 0.000248156 0.000166182 0.000166182 0.000166628
     121
 0.000033753 0.000033753 0.000033753-0.000000000 0.000000000-0.000000000
 0.000071676 0.000071676 0.000071676 0.000001192 0.000001192 0.000001192
 0.000330349 0.000000358 0.000000358 0.000000358 0.000107783 0.000107783
 0.000107783 0.000251922 0.000251922 0.000168720 0.000168720 0.000168720
     122
 0.000035315 0.000032825 0.000032016-0.000000222 0.000000730 0.000000987
 0.000071174 0.000071215 0.000071284 0.000000875 0.000001272 0.000001747
 0.000326886 0.000001248 0.000000825 0.000000491 0.000108194 0.000107525
 0.000106601 0.000249388 0.000249382 0.000167499 0.000166782 0.000167080
     123
 0.000039920 0.000030666 0.000026929-0.000000869 0.000002822 0.000003371
 0.000069742 0.000069867 0.000070022-0.000000043 0.000001481 0.000003417
 0.000316751 0.000003827 0.000002248 0.000000938 0.000108152 0.000106260
 0.000103340 0.000242146 0.000242872 0.000163950 0.000161113 0.000162297
     124
 0.000047281 0.000028447 0.000018841-0.000001891 0.000006058 0.000006111
 0.000067543 0.000067810 0.000067729-0.000001463 0.000001735 0.000006082
 0.000300671 0.000007844 0.000004906 0.000001696 0.000105291 0.000102881
 0.000098663 0.000231100 0.000234214 0.000158400 0.000152137 0.000154751
     125
 0.000056926 0.000027047 0.000008301-0.000003205 0.000010185 0.000008509
 0.000064646 0.000064922 0.000064940-0.000003234 0.000001933 0.000009359
 0.000279758 0.000012912 0.000009544 0.000002649 0.000097746 0.000096418
 0.000093207 0.000217370 0.000224237 0.000151381 0.000140542 0.000144981
     126
 0.000068288 0.000026984-0.000004004-0.000004706 0.000014927 0.000010269
 0.000060552 0.000062356 0.000061662-0.000005172 0.000001992 0.000012711
 0.000255384 0.000018545 0.000017308 0.000003620 0.000084197 0.000086554
 0.000087317 0.000202041 0.000212836 0.000143600 0.000127205 0.000133586
     127
 0.000080835 0.000028596-0.000017297-0.000006274 0.000019990 0.000011308
 0.000053945 0.000061875 0.000058051-0.000007082 0.000001883 0.000015691
 0.000229012 0.000024214 0.000028577 0.000004426 0.000064541 0.000073699
 0.000081013 0.000186077 0.000199581 0.000135886 0.000113063 0.000121144
     128
 0.000094168 0.000032154-0.000030770-0.000007782 0.000025070 0.000011635
 0.000045772 0.000062852 0.000054244-0.000008784 0.000001655 0.000018055
 0.000202034 0.000040431 0.000029431 0.000004906 0.000042141 0.000058790
 0.000074110 0.000170321 0.000184153 0.000129110 0.000108152 0.000098941
     129
 0.000108099 0.000037898-0.000043630-0.000009103 0.000029855 0.000011314
 0.000037909 0.000063650 0.000050343-0.000010138 0.000001433 0.000019749
 0.000175652 0.000047810 0.000033803 0.000004977 0.000043017 0.000022557
 0.000066365 0.000155501 0.000166562 0.000124080 0.000095018 0.000085418
     130
 0.000122698 0.000046024-0.000055133-0.000010124 0.000034039 0.000010470
 0.000030261 0.000064608 0.000046411-0.000011050 0.000001392 0.000020848
 0.000150802 0.000048911 0.000037050 0.000004655 0.000027616 0.000008114
 0.000057623 0.000142227 0.000147172 0.000121411 0.000082064 0.000072795
     131
 0.000138298 0.000056668-0.000064606-0.000010754 0.000037316 0.000009300
 0.000022902 0.000065937 0.000042473-0.000011476 0.000001726 0.000021500
 0.000128144 0.000045279 0.000038981 0.000013717 0.000004074-0.000002200
 0.000047934 0.000131000 0.000126616 0.000121387 0.000069551 0.000061168
     132
 0.000155479 0.000069864-0.000071471-0.000010929 0.000039400 0.000008093
 0.000016247 0.000067540 0.000038529-0.000011408 0.000002584 0.000022021
 0.000107912 0.000038939 0.000039472 0.000002259 0.000003455-0.000009854
 0.000037639 0.000122252 0.000105655 0.000123834 0.000057701 0.000050538
     133
 0.000175020 0.000085502-0.000075256-0.000010621 0.000040039 0.000007252
 0.000010884 0.000069095 0.000034560-0.000010862 0.000004023 0.000088842
 0.000023974 0.000031358 0.000038467-0.000006064 0.000003058-0.000015711
 0.000027380 0.000116423 0.000085073 0.000128044 0.000046720 0.000040899
     134
 0.000197838 0.000103277-0.000075609-0.000009833 0.000039055 0.000007311
 0.000007562 0.000069950 0.000030552-0.000009867 0.000005958 0.000074601
 0.000023755 0.000023511 0.000036003-0.000010815 0.000003101-0.000020076
 0.000018030 0.000114001 0.000065624 0.000132815 0.000036807 0.000032280
     135
 0.000224911 0.000122655-0.000072305-0.000008606 0.000036393 0.000008934
 0.000007270 0.000068868 0.000026503-0.000008463 0.000008148 0.000061936
 0.000024474 0.000016098 0.000032230-0.000011755 0.000003680-0.000022885
 0.000010567 0.000115427 0.000048018 0.000136691 0.000028161 0.000024752
     136
 0.000257177 0.000142849-0.000065262-0.000007007 0.000032188 0.000012857
 0.000011127 0.000022435 0.000064008-0.000006715 0.000010223 0.000051388
 0.000009672 0.000025247 0.000027300-0.000008557 0.000004669-0.000023834
 0.000005941 0.000120824 0.000032932 0.000138400 0.000020977 0.000018405
     137
 0.000295410 0.000162859-0.000054541-0.000005131 0.000026879 0.000019636
 0.000019166 0.000018402 0.000054157-0.000004729 0.000011768 0.000043086
 0.000004670 0.000025540 0.000020372 0.000000207 0.000005655-0.000022449
 0.000004973 0.000129661 0.000021016 0.000137307 0.000015430 0.000013328
     138
 0.000340044 0.000181579-0.000040353-0.000003091 0.000021392 0.000029028
 0.000028656 0.000014465 0.000040845-0.000002628 0.000037368 0.000012424
 0.000001385 0.000025783 0.000007473 0.000018067 0.000006011-0.000018236
 0.000008306 0.000140650 0.000012874 0.000133607 0.000011651 0.000009588
     139
 0.000390976 0.000197977-0.000023053-0.000001007 0.000017519 0.000038960
 0.000035830 0.000010640-0.000000478 0.000027496 0.000034642 0.000011971
-0.000000084 0.000021558 0.000001255 0.000036679 0.000005354-0.000011158
 0.000016379 0.000151969 0.000009020 0.000128144 0.000009706 0.000007208
     140
 0.000447396 0.000211298-0.000003135 0.000000995 0.000018625 0.000044709
 0.000039202 0.000006335 0.000002298 0.000016675 0.000035020 0.000010348
 0.000000162 0.000020227 0.000003308 0.000046868 0.000004246-0.000002301
 0.000029400 0.000161676 0.000009813 0.000122045 0.000009566 0.000006163
     141
 0.000507763 0.000221164 0.000018786 0.000002799 0.000029789 0.000039953
 0.000039339 0.000000616 0.000006652 0.000009461 0.000038042 0.000007638
 0.000001865 0.000021481 0.000007510 0.000054716 0.000004076 0.000006311
 0.000047282 0.000168096 0.000015371 0.000116396 0.000011088 0.000006371
     142
 0.000570009 0.000227501 0.000041995 0.000004306 0.000052245 0.000024270
 0.000002250 0.000036416 0.000003859 0.000005882 0.000042756 0.000004029
 0.000004680 0.000024952 0.000011244 0.000062742 0.000005947 0.000012931
 0.000069566 0.000170065 0.000025490 0.000112068 0.000014005 0.000007709
     143
 0.000631922 0.000230338 0.000065704 0.000005443 0.000075839 0.000011110
 0.000003079 0.000028992 0.000002114 0.000005503 0.000047885-0.000000222
 0.000008235 0.000029899 0.000014106 0.000071539 0.000010096 0.000095429
 0.000016773 0.000166977 0.000039556 0.000109646 0.000017935 0.000010019
     144
 0.000691483 0.000229658 0.000089081 0.000006173 0.000092812 0.000009617
 0.000003404 0.000001136 0.000017747 0.000012195 0.000047570-0.000004822
 0.000012175 0.000034858 0.000016793 0.000081302 0.000016162 0.000123818
 0.000017841 0.000158650 0.000056514 0.000109413 0.000022408 0.000013139
     145
 0.000747017 0.000225470 0.000111288 0.000006508 0.000105195 0.000013496
 0.000003297 0.000000838 0.000008994 0.000058762 0.000006763-0.000009467
 0.000016184 0.000038173 0.000020374 0.000092079 0.000023460 0.000153626
 0.000016675 0.000145215 0.000074907 0.000111355 0.000026915 0.000016915
     146
 0.000797120 0.000218071 0.000131513 0.000006522 0.000116513 0.000015555
 0.000002769 0.000001159 0.000008552 0.000057856 0.000009891-0.000013870
 0.000019989 0.000039673 0.000024729 0.000103651 0.000031039 0.000183408
 0.000014241 0.000127570 0.000093040 0.000115176 0.000030972 0.000021215
     147
 0.000840487 0.000208321 0.000149006 0.000128506 0.000006359 0.000013855
 0.000001806 0.000002008 0.000018954 0.000051114 0.000011358-0.000017776
 0.000040866 0.000023365 0.000028574 0.000115313 0.000037750 0.000210111
 0.000011756 0.000108854 0.000109237 0.000120334 0.000034209 0.000025879
     148
 0.000875775 0.000197754 0.000163113 0.000141120 0.000006226 0.000009102
 0.000000417 0.000003227 0.000040030 0.000036817-0.000020975 0.000009776
 0.000043775 0.000026133 0.000030819 0.000125892 0.000042630 0.000228972
 0.000010211 0.000094476 0.000122164 0.000126114 0.000036446 0.000030609
     149
 0.000901598 0.000188384 0.000173301 0.000152786 0.000006292 0.000003100
-0.000001230 0.000004544 0.000064259 0.000021314-0.000023305 0.000003314
 0.000049758 0.000028151 0.000031098 0.000134129 0.000045442 0.000238177
 0.000009793 0.000087088 0.000131108 0.000131690 0.000037738 0.000034826
     150
 0.000916690 0.000182236 0.000179183 0.000160884 0.000006504-0.000001672
-0.000002615 0.000005544 0.000080122 0.000017708-0.000024656-0.000009560
 0.000056663 0.000029323 0.000030097 0.000139076 0.000046671 0.000241067
 0.000009944 0.000084304 0.000136002 0.000135920 0.000038318 0.000037679
     151
 0.000920182 0.000180741 0.000180535 0.000162920 0.000006584-0.000002933
-0.000002998 0.000005806 0.000083714 0.000026742-0.000024968-0.000022625
 0.000058800 0.000029594 0.000029649 0.000140231 0.000046906 0.000241463
 0.000010025 0.000083758 0.000137090 0.000137080 0.000038431 0.000038387
     152
 0.000914268 0.000182925 0.000178579 0.000159493 0.000006474-0.000001433
-0.000001768 0.000005370 0.000077637 0.000016526-0.000022828-0.000007281
 0.000055299 0.000029210 0.000030298 0.000138275 0.000046502 0.000239910
 0.000010745 0.000084655 0.000135429 0.000134982 0.000037996 0.000037439
     153
 0.000896889 0.000189879 0.000171791 0.000150400 0.000006315 0.000002712
 0.000000799 0.000004271 0.000059529 0.000023655-0.000019931 0.000002564
 0.000048170 0.000027883 0.000031168 0.000132594 0.000045014 0.000233529
 0.000013252 0.000088032 0.000129707 0.000130394 0.000036855 0.000034680
     154
 0.000869018 0.000199687 0.000160747 0.000138260 0.000006389 0.000008869
 0.000002179 0.000002945 0.000034986 0.000039831-0.000005800-0.000003705
 0.000042725 0.000025806 0.000030502 0.000123784 0.000041815 0.000219990
 0.000016392 0.000096706 0.000119901 0.000124744 0.000035284 0.000030404
     155
 0.000831966 0.000210263 0.000145878 0.000099442 0.000032794 0.000014053
 0.000002535 0.000001774 0.000015845 0.000052706 0.000010501-0.000015849
 0.000038730 0.000024509 0.000027876 0.000112877 0.000036529 0.000199955
 0.000017375 0.000112365 0.000106205 0.000119059 0.000033014 0.000025481
     156
 0.000787120 0.000219658 0.000127747 0.000006539 0.000114034 0.000015440
 0.000002944 0.000000995 0.000007825 0.000057933 0.000009445-0.000012629
 0.000019790 0.000038877 0.000023820 0.000101158 0.000029561 0.000174528
 0.000017622 0.000131278 0.000089476 0.000114144 0.000029797 0.000020667
     157
 0.000735808 0.000226467 0.000107032 0.000006468 0.000102708 0.000012827
 0.000003246 0.000000745 0.000010323 0.000058088 0.000006130-0.000008245
 0.000015462 0.000037549 0.000019542 0.000089722 0.000021958 0.000145966
 0.000018476 0.000148201 0.000071143 0.000110686 0.000025763 0.000016312
     158
 0.000679341 0.000229962 0.000084501 0.000006063 0.000089717 0.000009267
 0.000003267 0.000002449 0.000018924 0.000007972 0.000050168-0.000003610
 0.000011385 0.000033863 0.000016202 0.000079159 0.000014846 0.000116629
 0.000018978 0.000160594 0.000052910 0.000109184 0.000021314 0.000012565
     159
 0.000619165 0.000229929 0.000060974 0.000005253 0.000071374 0.000012905
 0.000003153 0.000029443 0.000003633 0.000005220 0.000046717 0.000000927
 0.000007475 0.000028767 0.000013585 0.000069614 0.000009119 0.000061399
 0.000044652 0.000167820 0.000036442 0.000109881 0.000016965 0.000009542
     160
 0.000557025 0.000226383 0.000037291 0.000004040 0.000047025 0.000027823
 0.000025818 0.000013051 0.000004744 0.000006266 0.000041515 0.000005056
 0.000004029 0.000024034 0.000010575 0.000061006 0.000005411 0.000012133
 0.000064290 0.000169823 0.000023121 0.000112732 0.000013236 0.000007384
     161
 0.000494998 0.000219328 0.000014276 0.000002467 0.000026412 0.000041949
 0.000038525 0.000001289 0.000007233 0.000010549 0.000037059 0.000008491
 0.000001402 0.000020980 0.000006671 0.000053097 0.000003992 0.000004732
 0.000043144 0.000166855 0.000013912 0.000117391 0.000010595 0.000006246
     162
 0.000435300 0.000208745-0.000007294 0.000000614 0.000017712 0.000044136
 0.000038248 0.000007947 0.000001591 0.000018439 0.000034513 0.000010997
-0.000000036 0.000020229 0.000002576 0.000045104 0.000004456-0.000004138
 0.000026289 0.000159629 0.000009339 0.000123213 0.000009405 0.000006274
     163
 0.000379915 0.000194753-0.000026724-0.000001414 0.000018005 0.000037032
 0.000034262 0.000011846 0.000008668 0.000020320 0.000034670 0.000012469
 0.000000047 0.000022149 0.000001720 0.000033674 0.000005560-0.000012786
 0.000014305 0.000149427 0.000009531 0.000129275 0.000009911 0.000007582
     164
 0.000330244 0.000177810-0.000043421-0.000003498 0.000022418 0.000026928
 0.000026521 0.000015821 0.000043164-0.000002977 0.000018025 0.000032691
 0.000001883 0.000026348 0.000009949 0.000013675 0.000006012-0.000019322
 0.000007236 0.000138006 0.000014310 0.000134462 0.000012233 0.000010238
     165
 0.000286945 0.000158741-0.000056921-0.000005514 0.000027977 0.000017987
 0.000017129 0.000021135 0.000054608-0.000005128 0.000011606 0.000044523
 0.000005533 0.000025467 0.000022116-0.000002188 0.000005480-0.000022930
 0.000004828 0.000127321 0.000023275 0.000137677 0.000016380 0.000014256
     166
 0.000249993 0.000138610-0.000066898-0.000007340 0.000033113 0.000011817
 0.000009935 0.000051014 0.000037519-0.000007080 0.000009897 0.000053316
 0.000010865 0.000025083 0.000028373-0.000009563 0.000004455-0.000023799
 0.000006600 0.000119122 0.000035884 0.000138180 0.000022270 0.000019604
     167
 0.000218868 0.000118514-0.000073171-0.000008869 0.000037023 0.000008426
 0.000007060 0.000067647 0.000028828-0.000008761 0.000007756 0.000064300
 0.000024286 0.000017522 0.000033064-0.000011860 0.000003537-0.000022439
 0.000011874 0.000114548 0.000051519 0.000135946 0.000029757 0.000026210
     168
 0.000192753 0.000099415-0.000075709-0.000010010 0.000039343 0.000007185
 0.000008091 0.000069122 0.000031925-0.000010080 0.000005585 0.000077381
 0.000023642 0.000025074 0.000036589-0.000010130 0.000003077-0.000019296
 0.000019797 0.000113970 0.000069530 0.000131767 0.000038659 0.000033988
     169
 0.000170691 0.000082047-0.000074625-0.000010701 0.000039983 0.000007362
 0.000011908 0.000068292 0.000035678-0.000010981 0.000003731 0.000091072
 0.000024948 0.000032932 0.000038767-0.000004639 0.000003150-0.000014628
 0.000029404 0.000117164 0.000089240 0.000126996 0.000048770 0.000042856
     170
 0.000151708 0.000066898-0.000070170-0.000010908 0.000039029 0.000008318
 0.000017586 0.000066802 0.000039533-0.000011427 0.000002405 0.000021821
 0.000111857 0.000040355 0.000039471 0.000004328 0.000003641-0.000008431
 0.000039727 0.000123655 0.000109938 0.000123066 0.000059870 0.000052773
     171
 0.000134911 0.000054227-0.000062723-0.000010635 0.000036678 0.000009546
 0.000024418 0.000065307 0.000043418-0.000011391 0.000001660 0.000021379
 0.000132508 0.000046284 0.000038686 0.000004398 0.000016171-0.000000278
 0.000049933 0.000132961 0.000130864 0.000121090 0.000071711 0.000063766
     172
 0.000119556 0.000044110-0.000052778-0.000009918 0.000033190 0.000010670
 0.000031846 0.000064108 0.000047321-0.000010862 0.000001416 0.000020650
 0.000155650 0.000049129 0.000036483 0.000004755 0.000030333 0.000011054
 0.000059439 0.000144653 0.000151232 0.000121664 0.000083960 0.000075970
     173
 0.000105111 0.000036490-0.000040934-0.000008826 0.000028860 0.000011419
 0.000039497 0.000063273 0.000051229-0.000009854 0.000001508 0.000019440
 0.000180869 0.000046795 0.000033009 0.000005015 0.000036832 0.000035583
 0.000067968 0.000158291 0.000170296 0.000124858 0.000096113 0.000089646
     174
 0.000091294 0.000031216-0.000027880-0.000007456 0.000023992 0.000011615
 0.000047366 0.000062533 0.000055105-0.000008419 0.000001743 0.000017612
 0.000207452 0.000030421 0.000036212 0.000004863 0.000047393 0.000061221
 0.000075519 0.000173356 0.000187467 0.000130311 0.000107786 0.000104777
     175
 0.000078092 0.000028080-0.000014374-0.000005925 0.000018897 0.000011146
 0.000055401 0.000061707 0.000058876-0.000006663 0.000001952 0.000015113
 0.000234403 0.000023060 0.000026064 0.000004309 0.000069259 0.000076236
 0.000082278 0.000189217 0.000202447 0.000137354 0.000119707 0.000119944
     176
 0.000065739 0.000026837-0.000001214-0.000004359 0.000013884 0.000009957
 0.000061474 0.000062668 0.000062436-0.000004735 0.000002023 0.000012030
 0.000260474 0.000017361 0.000015412 0.000003458 0.000087714 0.000088610
 0.000088488 0.000205125 0.000215297 0.000145158 0.000132319 0.000133641
     177
 0.000054668 0.000027206 0.000010794-0.000002886 0.000009257 0.000008055
 0.000065257 0.000065395 0.000065651-0.000002818 0.000001926 0.000008652
 0.000284249 0.000011805 0.000008384 0.000002478 0.000099941 0.000097788
 0.000094304 0.000220215 0.000226376 0.000152851 0.000144581 0.000145531
     178
 0.000045429 0.000028824 0.000020886-0.000001624 0.000005308 0.000005555
 0.000068011 0.000068145 0.000068372-0.000001108 0.000001702 0.000005457
 0.000304269 0.000006918 0.000004245 0.000001555 0.000106419 0.000103546
 0.000099644 0.000233498 0.000236082 0.000159624 0.000155203 0.000155383
     179
 0.000038581 0.000031115 0.000028399-0.000000673 0.000002304 0.000002819
 0.000070075 0.000070178 0.000070354 0.000000217 0.000001441 0.000002973
 0.000319203 0.000003170 0.000001888 0.000000857 0.000108562 0.000106378
 0.000104094 0.000243867 0.000244371 0.000164802 0.000163141 0.000162799
     180
 0.000034568 0.000033112 0.000032824-0.000000110 0.000000490 0.000000639
 0.000071334 0.000071356 0.000071422 0.000001015 0.000001248 0.000001529
 0.000328011 0.000000923 0.000000673 0.000000481 0.000108311 0.000107394
 0.000106979 0.000250214 0.000250184 0.000167895 0.000167675 0.000167349
     181
 0.000033669 0.000033669 0.000033821 0.000000007 0.000000062 0.000000062
 0.000071633 0.000071633 0.000071647 0.000001199 0.000001199 0.000001205
 0.000330055 0.000000404 0.000000398 0.000000398 0.000107912 0.000107681
 0.000107681 0.000251709 0.000251695 0.000168616 0.000168616 0.000168520
 Broadening   0.0100
       1
 0.000027331 0.000027331 0.000027331-0.000000000-0.000000000 0.000000000
 0.000047543 0.000047543 0.000047543 0.000000526 0.000000526 0.000000526
 0.000205002 0.000000302 0.000000302 0.000000302 0.000079331 0.000079331
 0.000079331 0.000101979 0.000101979 0.000080368 0.000080368 0.000080368
       2
 0.000027212 0.000027212 0.000028745 0.000000027 0.000000196 0.000000196
 0.000047378 0.000047378 0.000047442 0.000000550 0.000000550 0.000000556
 0.000204130 0.000000477 0.000000481 0.000000481 0.000078829 0.000078895
 0.000078895 0.000101476 0.000102264 0.000080077 0.000080077 0.000079778
       3
 0.000026920 0.000026920 0.000032960 0.000000105 0.000000720 0.000000720
 0.000046863 0.000046863 0.000047137 0.000000641 0.000000641 0.000000643
 0.000201537 0.000000997 0.000001008 0.000001008 0.000077410 0.000077599
 0.000077599 0.000099979 0.000103006 0.000079207 0.000079207 0.000078049
       4
 0.000026594 0.000026594 0.000039889 0.000000232 0.000001431 0.000001431
 0.000045953 0.000045953 0.000046623 0.000000852 0.000000852 0.000000782
 0.000197294 0.000001847 0.000001863 0.000001863 0.000075263 0.000075473
 0.000075473 0.000097516 0.000103934 0.000077766 0.000077766 0.000075297
       5
 0.000026377 0.000026377 0.000049395 0.000000403 0.000002187 0.000002187
 0.000044605 0.000044605 0.000045894 0.000001230 0.000001230 0.000000964
 0.000191513 0.000003002 0.000003009 0.000003009 0.000072581 0.000072567
 0.000072567 0.000094139 0.000104728 0.000075768 0.000075768 0.000071706
       6
 0.000026363 0.000026363 0.000061287 0.000000608 0.000002890 0.000002890
 0.000042814 0.000042814 0.000044941 0.000001790 0.000001790 0.000001179
 0.000184349 0.000004428 0.000004395 0.000004395 0.000069511 0.000068953
 0.000068953 0.000089914 0.000105086 0.000073232 0.000073232 0.000067507
       7
 0.000026599 0.000026599 0.000075331 0.000000839 0.000003490 0.000003490
 0.000040626 0.000040626 0.000043761 0.000002497 0.000002497 0.000001413
 0.000175987 0.000006081 0.000005955 0.000005955 0.000066148 0.000064722
 0.000064722 0.000084928 0.000104752 0.000070183 0.000070183 0.000062956
       8
 0.000027097 0.000027097 0.000091252 0.000001084 0.000003969 0.000003969
 0.000038124 0.000038124 0.000042353 0.000003281 0.000003281 0.000001650
 0.000166640 0.000007909 0.000007610 0.000007610 0.000062563 0.000059987
 0.000059987 0.000079283 0.000103529 0.000066652 0.000066652 0.000058293
       9
 0.000027851 0.000027851 0.000108746 0.000001331 0.000004327 0.000004327
 0.000035407 0.000035407 0.000040726 0.000004056 0.000004056 0.000001874
 0.000156531 0.000009851 0.000009267 0.000009267 0.000058810 0.000054877
 0.000054877 0.000073098 0.000101288 0.000062677 0.000062677 0.000053722
      10
 0.000028844 0.000028844 0.000127481 0.000001569 0.000004569 0.000004569
 0.000032564 0.000032564 0.000038900 0.000004750 0.000004750 0.000002069
 0.000145887 0.000011835 0.000010823 0.000010823 0.000054941 0.000049540
 0.000049540 0.000066501 0.000097980 0.000058300 0.000058300 0.000049385
      11
 0.000030053 0.000030053 0.000147113 0.000001788 0.000004706 0.000004706
 0.000029665 0.000029665 0.000036912 0.000005308 0.000005308 0.000002220
 0.000134925 0.000013786 0.000012171 0.000012171 0.000051013 0.000044131
 0.000044131 0.000059635 0.000093625 0.000053571 0.000053571 0.000045365
      12
 0.000031451 0.000031451 0.000167292 0.000001982 0.000004748 0.000004748
 0.000026763 0.000026763 0.000034813 0.000005698 0.000005698 0.000002313
 0.000123839 0.000015619 0.000013212 0.000013212 0.000047087 0.000038800
 0.000038800 0.000052651 0.000088297 0.000048546 0.000048546 0.000041694
      13
 0.000033010 0.000033010 0.000187669 0.000002149 0.000004705 0.000004705
 0.000023893 0.000023893 0.000032677 0.000005903 0.000005903 0.000002338
 0.000112795 0.000043227 0.000017243 0.000013866 0.000013866 0.000033678
 0.000033678 0.000045706 0.000082111 0.000043285 0.000043285 0.000038368
      14
 0.000034698 0.000034698 0.000207910 0.000002294 0.000004585 0.000004585
 0.000021085 0.000021085 0.000030602 0.000005919 0.000005919 0.000002289
 0.000101915 0.000039499 0.000018561 0.000014087 0.000014087 0.000028866
 0.000028866 0.000038961 0.000075204 0.000037853 0.000037853 0.000035362
      15
 0.000036485 0.000036485 0.000227697 0.000004396 0.000004396 0.000002430
 0.000018361 0.000018361 0.000028711 0.000005749 0.000005749 0.000002164
 0.000091279 0.000035961 0.000019473 0.000013872 0.000013872 0.000024418
 0.000024418 0.000032579 0.000067725 0.000032323 0.000032323 0.000032638
      16
 0.000038339 0.000038339 0.000246744 0.000004145 0.000004145 0.000002579
 0.000015744 0.000015744 0.000027156 0.000005401 0.000005401 0.000001968
 0.000080909 0.000032660 0.000013262 0.000013262 0.000019879 0.000020342
 0.000020342 0.000026720 0.000059825 0.000026766 0.000026766 0.000030160
      17
 0.000040229 0.000040229 0.000264794 0.000003836 0.000003836 0.000002778
 0.000013253 0.000013253 0.000026118 0.000004886 0.000004886 0.000001710
 0.000070774 0.000029622 0.000012334 0.000012334 0.000019678 0.000016610
 0.000016610 0.000021534 0.000051653 0.000021261 0.000021261 0.000027891
      18
 0.000042123 0.000042123 0.000281633 0.000003473 0.000003473 0.000003078
 0.000010909 0.000010909 0.000025806 0.000004217 0.000004217 0.000001407
 0.000060779 0.000026853 0.000011184 0.000011184 0.000018782 0.000013167
 0.000013167 0.000017158 0.000043355 0.000015884 0.000015884 0.000025803
      19
 0.000043992 0.000043992 0.000297087 0.000003059 0.000003059 0.000003550
 0.000008735 0.000008735 0.000026451 0.000003411 0.000003411 0.000001082
 0.000050775 0.000024328 0.000009917 0.000009917 0.000017115 0.000009952
 0.000009952 0.000013707 0.000035072 0.000010712 0.000010712 0.000023871
      20
 0.000045807 0.000045807 0.000311030 0.000002598 0.000002598 0.000004284
 0.000006749 0.000006749 0.000028284 0.000002486 0.000002486 0.000040573
 0.000000762 0.000021987 0.000008630 0.000008630 0.000014627 0.000006902
 0.000006902 0.000011262 0.000026937 0.000005819 0.000005819 0.000022080
      21
 0.000047543 0.000047543 0.000323384 0.000002092 0.000002092 0.000005399
 0.000004971 0.000004971 0.000031501 0.000029984 0.000001465 0.000001465
 0.000000479 0.000019736 0.000007402 0.000007402 0.000011309 0.000003971
 0.000003971 0.000009861 0.000019077 0.000001274 0.000001274 0.000020421
      22
 0.000049175 0.000049175 0.000334119 0.000001543 0.000001543 0.000007043
 0.000003416 0.000003416 0.000036151 0.000018921 0.000000374 0.000000374
 0.000000266 0.000017442 0.000006295 0.000006295 0.000007201 0.000009485
 0.000001129 0.000001129 0.000011610-0.000002863-0.000002863 0.000018890
      23
 0.000050684 0.000050684 0.000343250 0.000000957 0.000000957 0.000009391
 0.000002096 0.000002096 0.000041919 0.000007620-0.000000754-0.000000754
 0.000000152 0.000014938 0.000005347 0.000005347 0.000002408 0.000010053
-0.000001631-0.000001631 0.000004646-0.000006541-0.000006541 0.000017488
      24
 0.000052049 0.000052049 0.000350840 0.000000337 0.000000337 0.000012637
 0.000001020 0.000001020 0.000047673-0.000002906-0.000001886-0.000001886
 0.000000158 0.000012040 0.000004576 0.000004576-0.000002895 0.000011416
-0.000004296-0.000004296-0.000001715-0.000009722-0.000009722 0.000016223
      25
 0.000053256 0.000053256 0.000356985-0.000000306-0.000000306 0.000016965
 0.000000188 0.000000188 0.000050793-0.000010205-0.000002980-0.000002980
 0.000000295 0.000008584 0.000003981 0.000003981-0.000008463 0.000013364
-0.000006828-0.000006828-0.000007383-0.000012387-0.000012387 0.000015102
      26
 0.000054291 0.000054291 0.000361812-0.000000961-0.000000961 0.000022484
-0.000000404-0.000000404 0.000047177-0.000010378-0.000003997-0.000003997
 0.000004493 0.000000549 0.000003547 0.000003547-0.000013987 0.000015638
-0.000009170-0.000009170-0.000012280-0.000014535-0.000014535 0.000014135
      27
 0.000055144 0.000055144 0.000365464-0.000001606-0.000001606 0.000029095
-0.000000774-0.000000774 0.000034082-0.000000878-0.000004892-0.000004892
-0.000000119 0.000000888 0.000003250 0.000003250-0.000019121 0.000017959
-0.000011248-0.000011248-0.000016341-0.000016185-0.000016185 0.000013333
      28
 0.000055805 0.000055805 0.000368087-0.000002207-0.000002207 0.000036303
-0.000000951-0.000000951 0.000014324 0.000015398-0.000005625-0.000005625
-0.000004857 0.000001254 0.000003061 0.000003061-0.000023509 0.000020055
-0.000012972-0.000012972-0.000019509-0.000017375-0.000017375 0.000012706
      29
 0.000056270 0.000056270 0.000369814-0.000002709-0.000002709 0.000043031
-0.000000992-0.000000992-0.000005198 0.000031773-0.000006162-0.000006162
-0.000009027 0.000001577 0.000002951 0.000002951-0.000026818 0.000021685
-0.000014252-0.000014252-0.000021743-0.000018154-0.000018154 0.000012264
      30
 0.000056534 0.000056534 0.000370751-0.000003037-0.000003037 0.000047708
-0.000000971-0.000000971-0.000018343 0.000042712-0.000006474-0.000006474
-0.000011784 0.000001789 0.000002898 0.000002898-0.000028783 0.000022670
-0.000015006-0.000015006-0.000023013-0.000018573-0.000018573 0.000012012
      31
 0.000056594 0.000056594 0.000370960-0.000003117-0.000003117 0.000048882
-0.000000960-0.000000960-0.000021553 0.000045362-0.000006546-0.000006546
-0.000012459 0.000001840 0.000002887 0.000002887-0.000029241 0.000022901
-0.000015182-0.000015182-0.000023303-0.000018665-0.000018665 0.000011954
      32
 0.000056450 0.000056450 0.000370457-0.000002929-0.000002929 0.000046142
-0.000000982-0.000000982-0.000014005 0.000039117-0.000006374-0.000006374
-0.000010874 0.000001719 0.000002914 0.000002914-0.000028152 0.000022352
-0.000014765-0.000014765-0.000022609-0.000018442-0.000018442 0.000012092
      33
 0.000056103 0.000056103 0.000369206-0.000002520-0.000002520 0.000040420
-0.000000987-0.000000987 0.000002343 0.000025453-0.000005967-0.000005967
-0.000007437 0.000001454 0.000002988 0.000002988-0.000025608 0.000021085
-0.000013786-0.000013786-0.000020941-0.000017881-0.000017881 0.000012423
      34
 0.000055557 0.000055557 0.000367125-0.000001968-0.000001968 0.000033325
-0.000000899-0.000000899 0.000022828 0.000008305-0.000005346-0.000005346
-0.000002935 0.000001105 0.000003127 0.000003127-0.000021820 0.000019238
-0.000012313-0.000012313-0.000018319-0.000016939-0.000016939 0.000012942
      35
 0.000054816 0.000054816 0.000364097-0.000001344-0.000001344 0.000026268
-0.000000647-0.000000647 0.000040572-0.000005906-0.000004542-0.000004542
 0.000001820 0.000000742 0.000003357 0.000003357-0.000017083 0.000017018
-0.000010432-0.000010432-0.000014778-0.000015566-0.000015566 0.000013642
      36
 0.000053888 0.000053888 0.000359980-0.000000692-0.000000692 0.000020073
-0.000000189-0.000000189 0.000049744-0.000011422-0.000003592-0.000003592
 0.000000432 0.000006248 0.000003707 0.000003707-0.000011745 0.000014682
-0.000008236-0.000008236-0.000010367-0.000013715-0.000013715 0.000014512
      37
 0.000052781 0.000052781 0.000354628-0.000000040-0.000000040 0.000015047
 0.000000500 0.000000500 0.000050075-0.000007830-0.000002538-0.000002538
 0.000000223 0.000010078 0.000004205 0.000004205-0.000006163 0.000012509
-0.000005807-0.000005807-0.000005144-0.000011356-0.000011356 0.000015544
      38
 0.000051507 0.000051507 0.000347904 0.000000595 0.000000595 0.000011183
 0.000001432 0.000001432 0.000045439 0.000001206-0.000001423-0.000001423
 0.000000140 0.000013289 0.000004871 0.000004871-0.000000670 0.000010773
-0.000003215-0.000003215 0.000000819-0.000008477-0.000008477 0.000016726
      39
 0.000050081 0.000050081 0.000339691 0.000001202 0.000001202 0.000008330
 0.000002609 0.000002609 0.000039462 0.000012250-0.000000288-0.000000288
 0.000000185 0.000016003 0.000005716 0.000005716 0.000004450 0.000009714
-0.000000508-0.000000508 0.000007438-0.000005089-0.000005089 0.000018048
      40
 0.000048519 0.000048519 0.000329906 0.000001773 0.000001773 0.000006294
 0.000004027 0.000004027 0.000034076 0.000023518 0.000000829 0.000000829
 0.000000343 0.000018399 0.000006732 0.000006732 0.000008979 0.000009519
 0.000002286 0.000002286 0.000014621-0.000001217-0.000001217 0.000019503
      41
 0.000046841 0.000046841 0.000318506 0.000002305 0.000002305 0.000004886
 0.000005675 0.000005675 0.000030004 0.000034389 0.000001894 0.000001894
 0.000000589 0.000020657 0.000007894 0.000007894 0.000012771 0.000005163
 0.000005163 0.000010310 0.000022263 0.000003094 0.000003094 0.000021087
      42
 0.000045070 0.000045070 0.000305493 0.000002793 0.000002793 0.000003944
 0.000007541 0.000007541 0.000027373 0.000002878 0.000002878 0.000044800
 0.000000891 0.000022931 0.000009155 0.000009155 0.000015750 0.000008138
 0.000008138 0.000012141 0.000030251 0.000007790 0.000007790 0.000022799
      43
 0.000043229 0.000043229 0.000290917 0.000003235 0.000003235 0.000003330
 0.000009606 0.000009606 0.000026055 0.000003757 0.000003757 0.000001217
 0.000054896 0.000025338 0.000010445 0.000010445 0.000017897 0.000011249
 0.000011249 0.000015006 0.000038463 0.000012807 0.000012807 0.000024646
      44
 0.000041346 0.000041346 0.000274877 0.000003628 0.000003628 0.000002939
 0.000011852 0.000011852 0.000025832 0.000004510 0.000004510 0.000001536
 0.000064875 0.000027959 0.000011676 0.000011676 0.000019240 0.000014550
 0.000014550 0.000018849 0.000046769 0.000018072 0.000018072 0.000026640
      45
 0.000039451 0.000039451 0.000257517 0.000003969 0.000003969 0.000002688
 0.000014259 0.000014259 0.000026469 0.000005117 0.000005117 0.000001822
 0.000074912 0.000030837 0.000012747 0.000012747 0.000019840 0.000018104
 0.000018104 0.000023573 0.000055032 0.000023511 0.000023511 0.000028800
      46
 0.000037572 0.000037572 0.000239029 0.000004255 0.000004255 0.000002514
 0.000016804 0.000016804 0.000027743 0.000005565 0.000005565 0.000002057
 0.000085136 0.000033985 0.000019780 0.000013556 0.000013556 0.000021972
 0.000021972 0.000029053 0.000063110 0.000029046 0.000029046 0.000031150
      47
 0.000035741 0.000035741 0.000219645 0.000004482 0.000004482 0.000002374
 0.000019468 0.000019468 0.000029456 0.000005841 0.000005841 0.000002225
 0.000095614 0.000037388 0.000019154 0.000014011 0.000014011 0.000026199
 0.000026199 0.000035146 0.000070856 0.000034601 0.000034601 0.000033725
      48
 0.000033991 0.000033991 0.000199635 0.000002237 0.000004643 0.000004643
 0.000022229 0.000022229 0.000031439 0.000005935 0.000005935 0.000002318
 0.000106357 0.000041010 0.000018063 0.000014050 0.000014050 0.000030800
 0.000030800 0.000041696 0.000078118 0.000040100 0.000040100 0.000036560
      49
 0.000032352 0.000032352 0.000179299 0.000002084 0.000004732 0.000004732
 0.000025066 0.000025066 0.000033553 0.000005841 0.000005841 0.000002336
 0.000117316 0.000016607 0.000044800 0.000013648 0.000013648 0.000035749
 0.000035749 0.000048543 0.000084746 0.000045470 0.000045470 0.000039694
      50
 0.000030856 0.000030856 0.000158962 0.000001906 0.000004742 0.000004742
 0.000027953 0.000027953 0.000035684 0.000005559 0.000005559 0.000002282
 0.000128395 0.000014887 0.000012828 0.000012828 0.000048695 0.000040970
 0.000040970 0.000055524 0.000090596 0.000050642 0.000050642 0.000043159
      51
 0.000029532 0.000029532 0.000138965 0.000001701 0.000004662 0.000004662
 0.000030859 0.000030859 0.000037745 0.000005098 0.000005098 0.000002164
 0.000139452 0.000012994 0.000011649 0.000011649 0.000052629 0.000046351
 0.000046351 0.000062478 0.000095536 0.000055552 0.000055552 0.000046974
      52
 0.000028409 0.000028409 0.000119659 0.000001473 0.000004483 0.000004483
 0.000033742 0.000033742 0.000039672 0.000004479 0.000004479 0.000001993
 0.000150309 0.000011020 0.000010203 0.000010203 0.000056540 0.000051750
 0.000051750 0.000069251 0.000099468 0.000060143 0.000060143 0.000051131
      53
 0.000027511 0.000027511 0.000101392 0.000001230 0.000004194 0.000004194
 0.000036543 0.000036543 0.000041419 0.000003744 0.000003744 0.000001785
 0.000160760 0.000009044 0.000008592 0.000008592 0.000060368 0.000057012
 0.000057012 0.000075695 0.000102336 0.000064360 0.000064360 0.000055578
      54
 0.000026861 0.000026861 0.000084506 0.000000983 0.000003787 0.000003787
 0.000039183 0.000039183 0.000042958 0.000002955 0.000002955 0.000001553
 0.000170584 0.000007141 0.000006924 0.000006924 0.000064059 0.000061984
 0.000061984 0.000081674 0.000104149 0.000068158 0.000068158 0.000060207
      55
 0.000026470 0.000026470 0.000069320 0.000000742 0.000003258 0.000003258
 0.000041568 0.000041568 0.000044273 0.000002193 0.000002193 0.000001316
 0.000179553 0.000005378 0.000005298 0.000005298 0.000067559 0.000066528
 0.000066528 0.000087061 0.000104987 0.000071495 0.000071495 0.000064851
      56
 0.000026340 0.000026340 0.000056128 0.000000520 0.000002611 0.000002611
 0.000043601 0.000043601 0.000045360 0.000001539 0.000001539 0.000001088
 0.000187447 0.000003812 0.000003801 0.000003801 0.000070812 0.000070518
 0.000070518 0.000091746 0.000105009 0.000074337 0.000074337 0.000069288
      57
 0.000026446 0.000026446 0.000045190 0.000000328 0.000001879 0.000001879
 0.000045213 0.000045213 0.000046220 0.000001052 0.000001052 0.000000885
 0.000194064 0.000002493 0.000002506 0.000002506 0.000073737 0.000073851
 0.000073851 0.000095632 0.000104438 0.000076655 0.000076655 0.000073268
      58
 0.000026722 0.000026722 0.000036723 0.000000175 0.000001127 0.000001127
 0.000046378 0.000046378 0.000046860 0.000000747 0.000000747 0.000000719
 0.000199230 0.000001459 0.000001475 0.000001475 0.000076219 0.000076444
 0.000076444 0.000098642 0.000103551 0.000078426 0.000078426 0.000076541
      59
 0.000027053 0.000027053 0.000030894 0.000000067 0.000000473 0.000000473
 0.000047120 0.000047120 0.000047287 0.000000592 0.000000592 0.000000600
 0.000202807 0.000000743 0.000000750 0.000000750 0.000078093 0.000078234
 0.000078234 0.000100713 0.000102661 0.000079634 0.000079634 0.000078891
      60
 0.000027288 0.000027288 0.000027823 0.000000009 0.000000069 0.000000069
 0.000047486 0.000047486 0.000047508 0.000000534 0.000000534 0.000000536
 0.000204699 0.000000363 0.000000364 0.000000364 0.000079155 0.000079179
 0.000079179 0.000101804 0.000102080 0.000080267 0.000080267 0.000080162
      61
 0.000027310 0.000027310 0.000027570 0.000000004 0.000000034 0.000000034
 0.000047515 0.000047515 0.000047526 0.000000530 0.000000530 0.000000531
 0.000204855 0.000000332 0.000000332 0.000000332 0.000079245 0.000079257
 0.000079257 0.000101894 0.000102028 0.000080319 0.000080319 0.000080268
      62
 0.000030826 0.000027086 0.000026830-0.000000063 0.000000204 0.000000846
 0.000047178 0.000047190 0.000047263 0.000000291 0.000000672 0.000000784
 0.000202963 0.000001000 0.000000855 0.000000305 0.000078029 0.000078209
 0.000078520 0.000101478 0.000101982 0.000079562 0.000079274 0.000079534
      63
 0.000043289 0.000025777 0.000025327-0.000000079 0.000000413 0.000003820
 0.000045982 0.000046014 0.000046287-0.000000539 0.000001287 0.000001525
 0.000196056 0.000003313 0.000003064 0.000000186 0.000073641 0.000073915
 0.000075989 0.000100314 0.000101335 0.000076467 0.000075796 0.000076976
      64
 0.000064177 0.000023903 0.000023213-0.000000176 0.000000452 0.000008462
 0.000044159 0.000044206 0.000044604-0.000001792 0.000002170 0.000002527
 0.000184770 0.000007366 0.000007121-0.000000126 0.000066025 0.000066370
 0.000071832 0.000098488 0.000099828 0.000071372 0.000070320 0.000073104
      65
 0.000092387 0.000021966 0.000021008-0.000000484 0.000000211 0.000014007
 0.000042072 0.000042108 0.000042222-0.000003208 0.000003004 0.000003449
 0.000170100 0.000013258 0.000013194-0.000000753 0.000055067 0.000055548
 0.000066419 0.000095928 0.000097373 0.000065056 0.000063538 0.000068461
      66
 0.000126346 0.000020432 0.000019207-0.000001020-0.000000305 0.000019707
 0.000040035 0.000040031 0.000039183-0.000004500 0.000003499 0.000003999
 0.000153268 0.000020563 0.000020827-0.000001805 0.000041289 0.000041980
 0.000060228 0.000092583 0.000093936 0.000058650 0.000056301 0.000063463
      67
 0.000164096 0.000019721 0.000018247-0.000001722-0.000001015 0.000024987
 0.000038213 0.000038152 0.000035596-0.000005414 0.000003518 0.000004048
 0.000135570 0.000027875 0.000027381-0.000003318 0.000026975 0.000027738
 0.000053766 0.000088453 0.000089551 0.000054018 0.000057706 0.000049444
      68
 0.000203494 0.000020190 0.000018495-0.000002489-0.000001810 0.000029478
 0.000036624 0.000036499 0.000031681-0.000005788 0.000003098 0.000003643
 0.000118213 0.000031478 0.000031031-0.000005223 0.000015228 0.000015780
 0.000047488 0.000083636 0.000084370 0.000053719 0.000049694 0.000043611
      69
 0.000242422 0.000022108 0.000020217-0.000003223-0.000002589 0.000032993
 0.000035191 0.000035000 0.000027807-0.000005574 0.000002429 0.000002980
 0.000102153 0.000030865 0.000030584-0.000007329 0.000007140 0.000007401
 0.000041724 0.000078357 0.000078675 0.000055201 0.000042453 0.000039130
      70
 0.000278936 0.000025611 0.000023550-0.000003845-0.000003268 0.000035499
 0.000033793 0.000033536 0.000024478-0.000004841 0.000001845 0.000002393
 0.000087949 0.000027160 0.000027005-0.000009347 0.000001924 0.000002065
 0.000036625 0.000072924 0.000072823 0.000056002 0.000038297 0.000036011
      71
 0.000311356 0.000030670 0.000028466-0.000004301-0.000003790 0.000037115
 0.000032301 0.000031979 0.000022256-0.000003745 0.000001779 0.000002322
 0.000075682 0.000021618 0.000021527-0.000010855-0.000000857-0.000001469
 0.000031979 0.000067638 0.000067144 0.000056661 0.000036070 0.000034029
      72
 0.000338309 0.000037073 0.000034754-0.000004560-0.000004122 0.000038095
 0.000030607 0.000030220-0.000002487 0.000021641 0.000002528 0.000003364
 0.000064646 0.000015177 0.000015114 0.000000248-0.000003515-0.000011605
 0.000025573 0.000062711 0.000061862 0.000057060 0.000035016 0.000032832
      73
 0.000358734 0.000044423 0.000042019-0.000004614-0.000004252 0.000038803
 0.000028632 0.000028183-0.000001273 0.000022984 0.000054912 0.000003665
 0.000004140 0.000009054 0.000009042 0.000017262-0.000003781 0.000005144
-0.000012034 0.000058231 0.000057069 0.000056435 0.000034959 0.000032013
      74
 0.000371867 0.000052163 0.000049706-0.000004465-0.000004183 0.000039600
 0.000026342 0.000025835-0.000000268 0.000026597 0.000044298 0.000004194
 0.000004541 0.000004701 0.000004805 0.000023047-0.000003378-0.000002475
-0.000011040 0.000054178 0.000052742 0.000050778 0.000039037 0.000031159
      75
 0.000377212 0.000059615 0.000057140-0.000004123-0.000003921 0.000040531
 0.000023744 0.000023187 0.000000421 0.000032537 0.000031996 0.000003857
 0.000004111 0.000002565 0.000002801 0.000022336-0.000001999-0.000002314
-0.000009076 0.000050454 0.000048779 0.000034939 0.000029880 0.000051671
      76
 0.000374513 0.000066044 0.000063583-0.000003595-0.000003477 0.000040753
 0.000020894 0.000020303 0.000000762 0.000036025 0.000003148 0.000003736
 0.000022134 0.000002124 0.000002456 0.000020881 0.000000240-0.000000429
-0.000006347 0.000046909 0.000045004 0.000030377 0.000027835 0.000050824
      77
 0.000363738 0.000068307 0.000070723-0.000002887-0.000002854 0.000031838
 0.000024299 0.000017289 0.000000794 0.000033996 0.000002537 0.000002498
 0.000020058 0.000002698 0.000003079 0.000019164 0.000003190 0.000002401
-0.000002873 0.000043322 0.000040867 0.000026928 0.000024766 0.000046264
      78
 0.000345088 0.000070662 0.000073007-0.000002002-0.000002053 0.000015046
 0.000014297 0.000031412 0.000000616 0.000031622 0.000002266 0.000002218
 0.000019493 0.000003713 0.000004099 0.000017175 0.000006734 0.000005964
 0.000039332 0.000036720 0.000000206 0.000022600 0.000020537 0.000039793
      79
 0.000319022 0.000070145 0.000072398-0.000000936-0.000001070 0.000012218
 0.000011512 0.000022647 0.000000367 0.000002408 0.000002233 0.000028249
 0.000019099 0.000004698 0.000005045 0.000014810 0.000010838 0.000010284
 0.000034344 0.000032330 0.000002142 0.000017191 0.000015171 0.000031683
      80
 0.000286314 0.000066456 0.000068602 0.000000320 0.000000109 0.000009815
 0.000009132 0.000015104 0.000000194 0.000002935 0.000002682 0.000020183
 0.000018714 0.000005277 0.000005544 0.000011914 0.000015196 0.000015170
 0.000027957 0.000026352 0.000003551 0.000010836 0.000008853 0.000022173
      81
 0.000248098 0.000059534 0.000061564 0.000001782 0.000001507 0.000008049
[...]
 0.000037102 0.000035038 0.000035038 0.000016889 0.000016889 0.000019850
     117
 0.000082994 0.000042852 0.000042852 0.000002290 0.000002290 0.000004507
 0.000014746 0.000014746 0.000016081 0.000000499 0.000001016 0.000001016
 0.000054505 0.000016663 0.000016663 0.000010985 0.000028880 0.000028880
 0.000039551 0.000034538 0.000034538 0.000017309 0.000017309 0.000019218
     118
 0.000063517 0.000040657 0.000040657 0.000001505 0.000001505 0.000002984
 0.000015087 0.000015087 0.000016034 0.000000426 0.000000820 0.000000820
 0.000057335 0.000014356 0.000014356 0.000011013 0.000034727 0.000034727
 0.000041774 0.000033428 0.000033428 0.000017792 0.000017792 0.000018870
     119
 0.000049359 0.000039182 0.000039182 0.000000766 0.000000766 0.000001563
 0.000015411 0.000015411 0.000015906 0.000000389 0.000000603 0.000000603
 0.000059471 0.000012510 0.000012510 0.000010998 0.000039932 0.000039932
 0.000043559 0.000031853 0.000031853 0.000018236 0.000018236 0.000018715
     120
 0.000040896 0.000038372 0.000038372 0.000000210 0.000000210 0.000000453
 0.000015644 0.000015644 0.000015780 0.000000375 0.000000434 0.000000434
 0.000060795 0.000011354 0.000011354 0.000010973 0.000043703 0.000043703
 0.000044718 0.000030326 0.000030326 0.000018545 0.000018545 0.000018665
     121
 0.000038121 0.000038121 0.000038121 0.000000000-0.000000000-0.000000000
 0.000015728 0.000015728 0.000015728 0.000000372 0.000000372 0.000000372
 0.000061243 0.000010962 0.000010962 0.000010962 0.000045120 0.000045120
 0.000045120 0.000029665 0.000029665 0.000018656 0.000018656 0.000018656
     122
 0.000039908 0.000038397 0.000038237 0.000000089 0.000000254 0.000000247
 0.000015689 0.000015663 0.000015753 0.000000377 0.000000407 0.000000419
 0.000060945 0.000011257 0.000011151 0.000011007 0.000043908 0.000044572
 0.000044710 0.000029798 0.000030423 0.000018621 0.000018563 0.000018642
     123
 0.000045240 0.000039397 0.000038588 0.000000349 0.000000979 0.000000812
 0.000015578 0.000015476 0.000015802 0.000000394 0.000000509 0.000000564
 0.000060058 0.000012126 0.000011701 0.000011158 0.000040742 0.000042981
 0.000043513 0.000030159 0.000032221 0.000018524 0.000018299 0.000018606
     124
 0.000054012 0.000041393 0.000039181 0.000000763 0.000002097 0.000001401
 0.000015422 0.000015816 0.000015192 0.000000425 0.000000665 0.000000806
 0.000058613 0.000013511 0.000012611 0.000011401 0.000036480 0.000040497
 0.000041622 0.000030662 0.000034180 0.000018397 0.000017910 0.000018566
     125
 0.000066011 0.000044502 0.000040025 0.000001302 0.000003514 0.000001867
 0.000015278 0.000015719 0.000014843 0.000000474 0.000000861 0.000001113
 0.000056667 0.000015308 0.000013906 0.000011689 0.000031707 0.000037313
 0.000039181 0.000031220 0.000035694 0.000018286 0.000017462 0.000018544
     126
 0.000080924 0.000048698 0.000041135 0.000001929 0.000005130 0.000002191
 0.000015277 0.000015377 0.000014459 0.000000544 0.000001082 0.000001439
 0.000054300 0.000017360 0.000015537 0.000011970 0.000026749 0.000033639
 0.000036378 0.000031778 0.000036505 0.000018260 0.000017030 0.000018557
     127
 0.000098347 0.000053896 0.000042525 0.000002605 0.000006852 0.000002398
 0.000015565 0.000014642 0.000014067 0.000000639 0.000001319 0.000001748
 0.000051619 0.000019471 0.000017165 0.000012205 0.000022029 0.000029684
 0.000033421 0.000032318 0.000036562 0.000018398 0.000016671 0.000018612
     128
 0.000117796 0.000059987 0.000044211 0.000003285 0.000008603 0.000002520
 0.000015797 0.000013854 0.000013682 0.000000761 0.000001564 0.000002034
 0.000048743 0.000018039 0.000021431 0.000012376 0.000018307 0.000025646
 0.000030516 0.000032845 0.000035930 0.000018792 0.000018702 0.000016413
     129
 0.000138738 0.000066852 0.000046211 0.000003929 0.000010323 0.000002587
 0.000015705 0.000013291 0.000013310 0.000000904 0.000001816 0.000002314
 0.000045792 0.000017637 0.000023059 0.000012482 0.000021719 0.000016085
 0.000027834 0.000033369 0.000034738 0.000019533 0.000018808 0.000016242
     130
 0.000160623 0.000074355 0.000048543 0.000004500 0.000011969 0.000002628
 0.000015439 0.000012841 0.000012945 0.000001056 0.000002075 0.000002626
 0.000042864 0.000016241 0.000024224 0.000012525 0.000018078 0.000015071
 0.000025490 0.000033889 0.000033147 0.000020700 0.000018898 0.000016118
     131
 0.000182920 0.000082344 0.000051224 0.000004967 0.000013506 0.000002677
 0.000015115 0.000012457 0.000012575 0.000001199 0.000002344 0.000003051
 0.000039993 0.000014419 0.000024855 0.000014881 0.000012508 0.000014710
 0.000023547 0.000034393 0.000031317 0.000022347 0.000018936 0.000015993
     132
 0.000205148 0.000090651 0.000054271 0.000005311 0.000014906 0.000002777
 0.000014821 0.000012152 0.000012179 0.000001311 0.000002627 0.000004279
 0.000036569 0.000012569 0.000024921 0.000012259 0.000012422 0.000014647
 0.000022039 0.000034859 0.000029388 0.000024484 0.000018886 0.000015827
     133
 0.000226903 0.000099091 0.000057695 0.000005521 0.000016145 0.000002988
 0.000014638 0.000011960 0.000011734 0.000001370 0.000002931 0.000035873
 0.000003058 0.000010893 0.000024422 0.000010303 0.000012246 0.000014738
 0.000020989 0.000035281 0.000027473 0.000027057 0.000018714 0.000015593
     134
 0.000247870 0.000107469 0.000061504 0.000005599 0.000017198 0.000003397
 0.000014647 0.000011913 0.000011213 0.000001361 0.000003260 0.000033355
 0.000003908 0.000009484 0.000023368 0.000009072 0.000011948 0.000014960
 0.000020427 0.000035686 0.000025661 0.000029931 0.000018401 0.000015275
     135
 0.000267837 0.000115583 0.000065694 0.000005556 0.000018046 0.000004127
 0.000014921 0.000012013 0.000010594 0.000001283 0.000003619 0.000031054
 0.000004720 0.000008370 0.000021763 0.000008587 0.000011493 0.000015334
 0.000020388 0.000036144 0.000024033 0.000032899 0.000017935 0.000014863
     136
 0.000286687 0.000123234 0.000070250 0.000005410 0.000018674 0.000005353
 0.000015516 0.000009859 0.000012190 0.000001157 0.000004002 0.000028680
 0.000007539 0.000005764 0.000019504 0.000008872 0.000010850 0.000015877
 0.000020908 0.000036741 0.000022669 0.000035712 0.000017323 0.000014355
     137
 0.000304387 0.000130235 0.000075142 0.000005187 0.000019088 0.000007291
 0.000016431 0.000009001 0.000012287 0.000001024 0.000004394 0.000026088
 0.000006955 0.000008087 0.000015515 0.000010014 0.000010028 0.000016552
 0.000022018 0.000037528 0.000021656 0.000038149 0.000016581 0.000013749
     138
 0.000320970 0.000136431 0.000080325 0.000004913 0.000019330 0.000010131
 0.000017506 0.000008024 0.000012131 0.000000942 0.000023250 0.000004767
 0.000006571 0.000016224 0.000005459 0.000011848 0.000009126 0.000017201
 0.000023731 0.000038470 0.000021088 0.000040073 0.000015738 0.000013044
     139
 0.000336505 0.000141699 0.000085736 0.000004617 0.000019539 0.000013840
 0.000018375 0.000006929 0.000000984 0.000011667 0.000020326 0.000005084
 0.000006337 0.000015457 0.000005372 0.000013098 0.000008387 0.000017513
 0.000026041 0.000039431 0.000021055 0.000041455 0.000014828 0.000012245
     140
 0.000351095 0.000145951 0.000091296 0.000004323 0.000020090 0.000017844
 0.000018612 0.000005525 0.000001413 0.000011022 0.000017630 0.000005306
 0.000006214 0.000013419 0.000007016 0.000014411 0.000008083 0.000017146
 0.000028904 0.000040223 0.000021625 0.000042343 0.000013885 0.000011359
     141
 0.000364870 0.000149106 0.000096915 0.000004052 0.000021832 0.000020762
 0.000018037 0.000001513 0.000004582 0.000010416 0.000015484 0.000005401
 0.000006176 0.000011667 0.000008263 0.000016419 0.000008290 0.000015977
 0.000032230 0.000040656 0.000022822 0.000042827 0.000012936 0.000010399
     142
 0.000377986 0.000151074 0.000102486 0.000003820 0.000025667 0.000020998
 0.000001596 0.000016863 0.000003825 0.000010009 0.000014062 0.000005346
 0.000006203 0.000010242 0.000009190 0.000019072 0.000008859 0.000014147
 0.000035869 0.000040587 0.000024610 0.000043004 0.000011995 0.000009386
     143
 0.000390609 0.000151756 0.000107897 0.000003641 0.000030756 0.000018868
 0.000002036 0.000015485 0.000002895 0.000009851 0.000013351 0.000005137
 0.000006281 0.000009168 0.000009868 0.000022354 0.000009604 0.000039631
 0.000011884 0.000039929 0.000026884 0.000042959 0.000011061 0.000008350
     144
 0.000402848 0.000151084 0.000113028 0.000003525 0.000035337 0.000016077
 0.000002517 0.000002096 0.000014101 0.000010268 0.000012845 0.000004786
 0.000006399 0.000008529 0.000010258 0.000026272 0.000010402 0.000043337
 0.000009407 0.000038635 0.000029471 0.000042763 0.000010120 0.000007330
     145
 0.000414699 0.000149094 0.000117757 0.000003484 0.000038912 0.000013451
 0.000002968 0.000001465 0.000012679 0.000013825 0.000009690 0.000004325
 0.000006541 0.000008447 0.000010286 0.000030760 0.000011158 0.000046909
 0.000006938 0.000036679 0.000032143 0.000042465 0.000009151 0.000006382
     146
 0.000425983 0.000145979 0.000121967 0.000003536 0.000041757 0.000011039
 0.000003320 0.000001012 0.000011294 0.000014282 0.000009738 0.000003798
 0.000006695 0.000008939 0.000009998 0.000035565 0.000011757 0.000050360
 0.000004728 0.000034149 0.000034655 0.000042090 0.000008141 0.000005575
     147
 0.000436331 0.000142133 0.000125546 0.000044205 0.000003708 0.000008720
 0.000003503 0.000000727 0.000010244 0.000014576 0.000009509 0.000003262
 0.000009999 0.000006844 0.000009514 0.000040227 0.000012062 0.000053532
 0.000003030 0.000031520 0.000036781 0.000041645 0.000007102 0.000004976
     148
 0.000445204 0.000138140 0.000128398 0.000046423 0.000004020 0.000006486
 0.000003462 0.000000586 0.000009993 0.000014202 0.000002775 0.000008797
 0.000011741 0.000006975 0.000008883 0.000044218 0.000012012 0.000055868
 0.000001981 0.000029699 0.000038368 0.000041130 0.000006094 0.000004628
     149
 0.000451973 0.000134698 0.000130439 0.000048330 0.000004442 0.000004519
 0.000003213 0.000000545 0.000010668 0.000013154 0.000002395 0.000007412
 0.000014150 0.000007075 0.000008116 0.000047151 0.000011725 0.000057039
 0.000001497 0.000029155 0.000039375 0.000040578 0.000005234 0.000004509
     150
 0.000456039 0.000132476 0.000131612 0.000049623 0.000004822 0.000003180
 0.000002918 0.000000552 0.000011508 0.000013010 0.000002163 0.000005140
 0.000016401 0.000007135 0.000007390 0.000048838 0.000011441 0.000057410
 0.000001345 0.000029346 0.000039878 0.000040126 0.000004674 0.000004515
     151
 0.000456991 0.000131939 0.000131881 0.000049946 0.000004929 0.000002845
 0.000002828 0.000000557 0.000011743 0.000014888 0.000002109 0.000002597
 0.000017045 0.000007149 0.000007167 0.000049224 0.000011363 0.000057461
 0.000001324 0.000029456 0.000039984 0.000040000 0.000004537 0.000004526
     152
 0.000455380 0.000132725 0.000131545 0.000049402 0.000004756 0.000003204
 0.000003176 0.000000550 0.000011353 0.000012785 0.000002485 0.000005518
 0.000015982 0.000007146 0.000007514 0.000048569 0.000011494 0.000057160
 0.000001575 0.000029278 0.000039846 0.000040167 0.000004647 0.000004629
     153
 0.000450717 0.000135245 0.000130191 0.000047947 0.000004359 0.000004319
 0.000003860 0.000000550 0.000010467 0.000013370 0.000003015 0.000007241
 0.000013585 0.000007082 0.000008280 0.000046618 0.000011800 0.000056027
 0.000002427 0.000029154 0.000039245 0.000040661 0.000005132 0.000004788
     154
 0.000443463 0.000138865 0.000127972 0.000045939 0.000003974 0.000006334
 0.000004100 0.000000610 0.000009946 0.000014338 0.000005784 0.000006118
 0.000011267 0.000006996 0.000009024 0.000043447 0.000012059 0.000053973
 0.000003672 0.000029935 0.000038116 0.000041218 0.000005997 0.000004985
     155
 0.000434237 0.000142892 0.000124958 0.000035212 0.000012158 0.000008875
 0.000003807 0.000000781 0.000010397 0.000014538 0.000009418 0.000003579
 0.000009423 0.000007115 0.000009626 0.000039282 0.000012042 0.000051533
 0.000004734 0.000031993 0.000036407 0.000041723 0.000007072 0.000005331
     156
 0.000423657 0.000146639 0.000121234 0.000003536 0.000041182 0.000011393
 0.000003395 0.000001105 0.000011549 0.000014162 0.000009743 0.000003956
 0.000006711 0.000008737 0.000010076 0.000034551 0.000011669 0.000048787
 0.000006027 0.000034672 0.000034182 0.000042156 0.000008176 0.000005910
     157
 0.000412232 0.000149558 0.000116902 0.000003494 0.000038231 0.000013920
 0.000002933 0.000001628 0.000012927 0.000013725 0.000009673 0.000004457
 0.000006513 0.000008405 0.000010311 0.000029784 0.000011027 0.000045638
 0.000007978 0.000037108 0.000031615 0.000042519 0.000009230 0.000006700
     158
 0.000400292 0.000151296 0.000112076 0.000003551 0.000034465 0.000016632
 0.000002446 0.000003369 0.000013255 0.000009959 0.000013111 0.000004897
 0.000006372 0.000008611 0.000010207 0.000025404 0.000010253 0.000042036
 0.000010469 0.000038929 0.000028939 0.000042801 0.000010226 0.000007632
     159
 0.000387979 0.000151695 0.000106874 0.000003680 0.000029697 0.000019404
 0.000002084 0.000015204 0.000003503 0.000009859 0.000013438 0.000005220
 0.000006262 0.000009350 0.000009749 0.000021620 0.000009457 0.000027922
 0.000023304 0.000040089 0.000026399 0.000042971 0.000011185 0.000008637
     160
 0.000375268 0.000150748 0.000101418 0.000003871 0.000024705 0.000021191
 0.000012110 0.000006419 0.000004147 0.000010073 0.000014279 0.000005400
 0.000006194 0.000010501 0.000009021 0.000018471 0.000008733 0.000014636
 0.000035029 0.000040621 0.000024212 0.000042977 0.000012132 0.000009658
     161
 0.000362032 0.000148532 0.000095826 0.000004112 0.000021312 0.000020342
 0.000017843 0.000002223 0.000004402 0.000010530 0.000015848 0.000005427
 0.000006180 0.000011994 0.000008036 0.000015950 0.000008220 0.000016291
 0.000031498 0.000040579 0.000022539 0.000042746 0.000013083 0.000010654
     162
 0.000348106 0.000145147 0.000090210 0.000004389 0.000019907 0.000017055
 0.000018462 0.000006017 0.000001289 0.000011148 0.000018116 0.000005315
 0.000006235 0.000013812 0.000006707 0.000014084 0.000008109 0.000017294
 0.000028264 0.000040058 0.000021471 0.000042187 0.000014036 0.000011596
     163
 0.000333335 0.000140682 0.000084673 0.000004686 0.000019476 0.000013028
 0.000018132 0.000007231 0.000004085 0.000008696 0.000020831 0.000005126
 0.000006378 0.000015871 0.000005036 0.000012889 0.000008517 0.000017500
 0.000025512 0.000039213 0.000021030 0.000041204 0.000014976 0.000012464
     164
 0.000317596 0.000135217 0.000079304 0.000004979 0.000019280 0.000009474
 0.000017216 0.000008279 0.000012147 0.000001018 0.000009161 0.000019391
 0.000006640 0.000014945 0.000007082 0.000011477 0.000009313 0.000017087
 0.000023324 0.000038239 0.000021181 0.000039713 0.000015874 0.000013245
     165
 0.000300793 0.000128846 0.000074179 0.000005245 0.000019009 0.000006827
 0.000016170 0.000009270 0.000012224 0.000001076 0.000004356 0.000026608
 0.000007062 0.000007308 0.000016667 0.000009706 0.000010213 0.000016411
 0.000021736 0.000037318 0.000021850 0.000037678 0.000016696 0.000013933
     166
 0.000282861 0.000121699 0.000069355 0.000005454 0.000018553 0.000005054
 0.000015327 0.000011240 0.000010954 0.000001202 0.000003939 0.000029173
 0.000007695 0.000005509 0.000020032 0.000008751 0.000011004 0.000015755
 0.000020750 0.000036568 0.000022945 0.000035150 0.000017407 0.000014524
     167
 0.000263780 0.000113940 0.000064875 0.000005581 0.000017878 0.000003947
 0.000014808 0.000011874 0.000010856 0.000001317 0.000003555 0.000031521
 0.000004542 0.000008580 0.000022132 0.000008628 0.000011607 0.000015245
 0.000020347 0.000036004 0.000024372 0.000032286 0.000017982 0.000015021
     168
 0.000243598 0.000105757 0.000060766 0.000005600 0.000016987 0.000003295
 0.000014597 0.000011868 0.000011385 0.000001379 0.000003201 0.000033835
 0.000003749 0.000009754 0.000023622 0.000009267 0.000012028 0.000014904
 0.000020497 0.000035564 0.000026043 0.000029318 0.000018403 0.000015426
     169
 0.000222452 0.000097352 0.000057041 0.000005495 0.000015893 0.000002935
 0.000014634 0.000011964 0.000011868 0.000001373 0.000002877 0.000036443
 0.000002856 0.000011220 0.000024564 0.000010650 0.000012300 0.000014708
 0.000021161 0.000035160 0.000027882 0.000026491 0.000018665 0.000015747
     170
 0.000200574 0.000088925 0.000053700 0.000005257 0.000014619 0.000002753
 0.000014846 0.000012190 0.000012294 0.000001301 0.000002578 0.000003775
 0.000037499 0.000012941 0.000024949 0.000012743 0.000012461 0.000014643
 0.000022306 0.000034730 0.000029806 0.000024000 0.000018775 0.000016000
     171
 0.000178298 0.000080672 0.000050736 0.000004887 0.000013188 0.000002668
 0.000015152 0.000012517 0.000012680 0.000001180 0.000002298 0.000002947
 0.000040578 0.000014806 0.000024767 0.000012590 0.000015430 0.000014756
 0.000023904 0.000034255 0.000031724 0.000021963 0.000018741 0.000016218
     172
 0.000156045 0.000072772 0.000048135 0.000004396 0.000011626 0.000002624
 0.000015469 0.000012915 0.000013049 0.000001033 0.000002031 0.000002558
 0.000043456 0.000016580 0.000024024 0.000012526 0.000018730 0.000015279
 0.000025931 0.000033745 0.000033517 0.000020417 0.000018565 0.000016464
     173
 0.000134309 0.000065391 0.000045879 0.000003808 0.000009962 0.000002580
 0.000015713 0.000013376 0.000013418 0.000000881 0.000001774 0.000002257
 0.000046393 0.000017821 0.000022756 0.000012473 0.000019592 0.000019339
 0.000028349 0.000033221 0.000035040 0.000019344 0.000018221 0.000016841
     174
 0.000113628 0.000058676 0.000043952 0.000003154 0.000008232 0.000002504
 0.000015758 0.000013959 0.000013801 0.000000742 0.000001523 0.000001978
 0.000049337 0.000020296 0.000018715 0.000012356 0.000019220 0.000026202
 0.000031087 0.000032694 0.000036132 0.000018682 0.000017750 0.000017393
     175
 0.000094551 0.000052761 0.000042335 0.000002471 0.000006483 0.000002366
 0.000015487 0.000014749 0.000014204 0.000000624 0.000001278 0.000001688
 0.000052181 0.000019036 0.000016874 0.000012172 0.000023043 0.000030404
 0.000034016 0.000032161 0.000036636 0.000018349 0.000017453 0.000017883
     176
 0.000077603 0.000047762 0.000041011 0.000001802 0.000004777 0.000002138
 0.000015252 0.000015379 0.000014628 0.000000533 0.000001043 0.000001374
 0.000054805 0.000016924 0.000015192 0.000011927 0.000027816 0.000034362
 0.000036958 0.000031612 0.000036434 0.000018252 0.000017512 0.000018153
     177
 0.000063253 0.000043785 0.000039963 0.000001190 0.000003198 0.000001787
 0.000015296 0.000015586 0.000015080 0.000000467 0.000000824 0.000001048
 0.000057093 0.000014910 0.000013616 0.000011642 0.000032733 0.000037973
 0.000039702 0.000031045 0.000035482 0.000018302 0.000017796 0.000018305
     178
 0.000051888 0.000040906 0.000039177 0.000000674 0.000001839 0.000001292
 0.000015451 0.000015562 0.000015511 0.000000421 0.000000634 0.000000751
 0.000058942 0.000013187 0.000012402 0.000011360 0.000037404 0.000041044
 0.000042044 0.000030486 0.000033863 0.000018421 0.000018147 0.000018421
     179
 0.000043802 0.000039130 0.000038639 0.000000290 0.000000800 0.000000691
 0.000015603 0.000015611 0.000015703 0.000000393 0.000000486 0.000000527
 0.000060274 0.000011901 0.000011568 0.000011134 0.000041472 0.000043371
 0.000043802 0.000030000 0.000031897 0.000018546 0.000018448 0.000018528
     180
 0.000039184 0.000038303 0.000038341 0.000000063 0.000000170 0.000000168
 0.000015701 0.000015703 0.000015727 0.000000378 0.000000396 0.000000401
 0.000061042 0.000011146 0.000011090 0.000011006 0.000044279 0.000044768
 0.000044843 0.000029687 0.000030251 0.000018632 0.000018621 0.000018619
     181
 0.000038143 0.000038143 0.000038260 0.000000008 0.000000022 0.000000022
 0.000015725 0.000015725 0.000015729 0.000000375 0.000000375 0.000000373
 0.000061218 0.000010974 0.000010978 0.000010978 0.000045003 0.000045085
 0.000045085 0.000029648 0.000029761 0.000018653 0.000018653 0.000018650
 
     MATDYN       :      3.20s CPU      4.53s WALL

 
   This run was terminated on:  10:35:58  30Mar2020            

=------------------------------------------------------------------------------=
   JOB DONE.
=------------------------------------------------------------------------------=
mpprun info: Elapsed time (h:m:s):  0:00:05.051760
