mpprun info: Starting impi run on 1 node ( 16 rank X 2 th ) for job ID 7525674

     Program PHONON v.6.4.1 starts on 30Mar2020 at  1:50:28 

     This program is part of the open-source Quantum ESPRESSO suite
     for quantum simulation of materials; please cite
         "P. Giannozzi et al., J. Phys.:Condens. Matter 21 395502 (2009);
         "P. Giannozzi et al., J. Phys.:Condens. Matter 29 465901 (2017);
          URL http://www.quantum-espresso.org", 
     in publications or presentations arising from this work. More details at
     http://www.quantum-espresso.org/quote

     Parallel version (MPI & OpenMP), running on      32 processor cores
     Number of MPI processes:                16
     Threads/MPI process:                     2

     MPI processes distributed on     1 nodes
     R & G space division:  proc/nbgrp/npool/nimage =      16
      Title line not specified: using 'default'.
      Title line not specified: using 'default'.
      Title line not specified: using 'default'.
      Title line not specified: using 'default'.
      Title line not specified: using 'default'.
      Title line not specified: using 'default'.
      Title line not specified: using 'default'.
      Title line not specified: using 'default'.
      Title line not specified: using 'default'.
      Title line not specified: using 'default'.
      Title line not specified: using 'default'.
      Title line not specified: using 'default'.
      Title line not specified: using 'default'.
      Title line not specified: using 'default'.
      Title line not specified: using 'default'.
      Title line not specified: using 'default'.

     Reading data from directory:
     /scratch/job/tmp/C.save/

     IMPORTANT: XC functional enforced from input :
     Exchange-correlation      = PBE ( 1  4  3  4 0 0)
     Any further DFT definition will be discarded
     Please, verify this is what you really want

 
     Parallelization info
     --------------------
     sticks:   dense  smooth     PW     G-vecs:    dense   smooth      PW
     Min         164      54     16                 6390     1222     202
     Max         166      55     17                 6392     1227     204
     Sum        2637     877    261               102255    19597    3239
 

     Check: negative core charge=   -0.000001


     Dynamical matrices for ( 3, 3, 3)  uniform grid of q-points
     (   4 q-points):
       N         xq(1)         xq(2)         xq(3) 
       1   0.000000000   0.000000000   0.000000000
       2   0.000000000   0.000000000   0.331051900
       3   0.000000000   0.331051900   0.331051900
       4   0.331051900   0.331051900   0.331051900

     Calculation of q =    0.0000000   0.0000000   0.0000000

Possibly too few bands at point    1   0.00000   0.00000   0.00000

Possibly too few bands at point    2   0.00000   0.00000   0.06621

     default                                                                    

     bravais-lattice index     =            0
     lattice parameter (alat)  =       6.7500  a.u.
     unit-cell volume          =     313.9491 (a.u.)^3
     number of atoms/cell      =            8
     number of atomic types    =            2
     kinetic-energy cut-off    =      60.0000  Ry
     charge density cut-off    =     720.0000  Ry
     convergence threshold     =      1.0E-10
     beta                      =       0.7000
     number of iterations used =            4
     Exchange-correlation      = PBE ( 1  4  3  4 0 0)


     celldm(1)=    6.75000  celldm(2)=    0.00000  celldm(3)=    0.00000
     celldm(4)=    0.00000  celldm(5)=    0.00000  celldm(6)=    0.00000

     crystal axes: (cart. coord. in units of alat)
               a(1) = (  1.0069  0.0000  0.0000 )  
               a(2) = (  0.0000  1.0069  0.0000 )  
               a(3) = (  0.0000  0.0000  1.0069 )  

     reciprocal axes: (cart. coord. in units 2 pi/alat)
               b(1) = (  0.9932  0.0000  0.0000 )  
               b(2) = (  0.0000  0.9932  0.0000 )  
               b(3) = (  0.0000  0.0000  0.9932 )  


     Atoms inside the unit cell: 

     Cartesian axes

     site n.  atom      mass           positions (alat units)
        1     C   12.0110   tau(    1) = (   -0.01026   -0.01026    0.01026  )
        2     C   12.0110   tau(    2) = (   -0.01026    0.51371    0.49318  )
        3     C   12.0110   tau(    3) = (    0.51371   -0.01026    0.49318  )
        4     C   12.0110   tau(    4) = (    0.51371    0.51371    0.01026  )
        5     N   14.0000   tau(    5) = (    0.25172    0.25172    0.75517  )
        6     C   12.0110   tau(    6) = (    0.25172    0.75517    0.25172  )
        7     C   12.0110   tau(    7) = (    0.75517    0.25172    0.25172  )
        8     C   12.0110   tau(    8) = (    0.75517    0.75517    0.75517  )

     Computing dynamical matrix for 
                    q = (   0.0000000   0.0000000   0.0000000 )
 
     25 Sym.Ops. (with q -> -q+G )


     G cutoff =  830.9604  (   6392 G-vectors)     FFT grid: ( 60, 60, 60)
     G cutoff =  276.9868  (   1227 G-vectors)  smooth grid: ( 36, 36, 36)

     number of k points=   120  mv smearing, width (Ry)=  0.0300

     PseudoPot. # 1 for C  read from file:
     ./C.UPF
     MD5 check sum: 3eea53a8c0c024778a530aaaebd3d0de
     Pseudo is Ultrasoft + core correction, Zval =  4.0
     Generated using "atomic" code by A. Dal Corso v.6.3MaX
     Using radial grid of 1073 points,  4 beta functions with: 
                l(1) =   0
                l(2) =   0
                l(3) =   1
                l(4) =   1
     Q(r) pseudized with 0 coefficients 


     PseudoPot. # 2 for N  read from file:
     ./N.UPF
     MD5 check sum: 42a680678ad2bd58dacd1baf6c773b6b
     Pseudo is Ultrasoft + core correction, Zval =  5.0
     Generated using "atomic" code by A. Dal Corso v.6.3MaX
     Using radial grid of 1085 points,  4 beta functions with: 
                l(1) =   0
                l(2) =   0
                l(3) =   1
                l(4) =   1
     Q(r) pseudized with 0 coefficients 


     Mode symmetry, T_d (-43m)  point group:


     Atomic displacements:
     There are   9 irreducible representations

     Representation     1      1 modes -A_1  G_1  P_1  To be done

     Representation     2      2 modes -E    G_12 P_3  To be done

     Representation     3      3 modes -T_1  G_25 P_5  To be done

     Representation     4      3 modes -T_1  G_25 P_5  To be done

     Representation     5      3 modes -T_2  G_15 P_4  To be done

     Representation     6      3 modes -T_2  G_15 P_4  To be done

     Representation     7      3 modes -T_2  G_15 P_4  To be done

     Representation     8      3 modes -T_2  G_15 P_4  To be done

     Representation     9      3 modes -T_2  G_15 P_4  To be done



     Alpha used in Ewald sum =   2.8000
     PHONON       :     16.01s CPU      9.15s WALL



     Representation #  1 mode #   1

     Self-consistent Calculation
 
     Pert. #  1: Fermi energy shift (Ry) =    -1.1181E-02     1.1520E-19

      iter #   1 total cpu time :    14.0 secs   av.it.:   6.0
      thresh= 1.000E-02 alpha_mix =  0.700 |ddv_scf|^2 =  2.203E-06
 
     Pert. #  1: Fermi energy shift (Ry) =    -4.1820E-01     1.0588E-21

      iter #   2 total cpu time :    20.4 secs   av.it.:  11.3
      thresh= 1.484E-04 alpha_mix =  0.700 |ddv_scf|^2 =  3.317E-06
 
     Pert. #  1: Fermi energy shift (Ry) =    -9.0688E-02    -8.4703E-22

      iter #   3 total cpu time :    26.5 secs   av.it.:  10.7
      thresh= 1.821E-04 alpha_mix =  0.700 |ddv_scf|^2 =  5.895E-08
 
     Pert. #  1: Fermi energy shift (Ry) =    -1.3271E-01     1.4558E-22

      iter #   4 total cpu time :    33.0 secs   av.it.:  10.9
      thresh= 2.428E-05 alpha_mix =  0.700 |ddv_scf|^2 =  7.624E-10
 
     Pert. #  1: Fermi energy shift (Ry) =    -1.3621E-01    -6.6174E-23

      iter #   5 total cpu time :    39.5 secs   av.it.:  11.2
      thresh= 2.761E-06 alpha_mix =  0.700 |ddv_scf|^2 =  8.854E-11

     End of self-consistent calculation

     Convergence has been achieved 


     Representation #  2 modes #   2  3

     Self-consistent Calculation
 
     Pert. #  1: Fermi energy shift (Ry) =    -2.0238E-18     3.7616E-37
     Pert. #  2: Fermi energy shift (Ry) =    -1.7528E-18     7.0530E-37

      iter #   1 total cpu time :    49.5 secs   av.it.:   6.0
      thresh= 1.000E-02 alpha_mix =  0.700 |ddv_scf|^2 =  4.817E-07
 
     Pert. #  1: Fermi energy shift (Ry) =    -2.1684E-19     0.0000E+00
     Pert. #  2: Fermi energy shift (Ry) =    -7.1377E-19    -5.6632E-40

      iter #   2 total cpu time :    62.3 secs   av.it.:  11.8
      thresh= 6.940E-05 alpha_mix =  0.700 |ddv_scf|^2 =  2.918E-07
 
     Pert. #  1: Fermi energy shift (Ry) =    -5.7824E-19    -4.5918E-40
     Pert. #  2: Fermi energy shift (Ry) =    -1.7528E-18    -1.2321E-39

      iter #   3 total cpu time :    74.7 secs   av.it.:  11.4
      thresh= 5.402E-05 alpha_mix =  0.700 |ddv_scf|^2 =  1.204E-09
 
     Pert. #  1: Fermi energy shift (Ry) =    -8.6736E-19     3.0612E-41
     Pert. #  2: Fermi energy shift (Ry) =    -2.1594E-18     6.3137E-41

      iter #   4 total cpu time :    87.4 secs   av.it.:  11.5
      thresh= 3.470E-06 alpha_mix =  0.700 |ddv_scf|^2 =  1.876E-11

     End of self-consistent calculation

     Convergence has been achieved 


     Representation #  3 modes #   4  5  6

     Self-consistent Calculation
 
     Pert. #  1: Fermi energy shift (Ry) =     5.4210E-20    -6.2693E-38
     Pert. #  2: Fermi energy shift (Ry) =    -1.1068E-19    -5.4856E-38
     Pert. #  3: Fermi energy shift (Ry) =    -7.2280E-20     6.2693E-38

      iter #   1 total cpu time :   101.8 secs   av.it.:   5.4
      thresh= 1.000E-02 alpha_mix =  0.700 |ddv_scf|^2 =  2.086E-08
 
     Pert. #  1: Fermi energy shift (Ry) =     5.6469E-21     1.2245E-40
     Pert. #  2: Fermi energy shift (Ry) =     6.3527E-21    -3.4821E-40
     Pert. #  3: Fermi energy shift (Ry) =     0.0000E+00     2.4489E-40

      iter #   2 total cpu time :   121.5 secs   av.it.:  12.4
      thresh= 1.444E-05 alpha_mix =  0.700 |ddv_scf|^2 =  5.023E-10
 
     Pert. #  1: Fermi energy shift (Ry) =     0.0000E+00    -7.6530E-42
     Pert. #  2: Fermi energy shift (Ry) =    -2.8940E-21     4.2091E-41
     Pert. #  3: Fermi energy shift (Ry) =    -1.6941E-21     3.0612E-41

      iter #   3 total cpu time :   141.2 secs   av.it.:  12.1
      thresh= 2.241E-06 alpha_mix =  0.700 |ddv_scf|^2 =  2.500E-11

     End of self-consistent calculation

     Convergence has been achieved 


     Representation #  4 modes #   7  8  9

     Self-consistent Calculation
 
     Pert. #  1: Fermi energy shift (Ry) =    -4.0658E-20     2.5077E-37
     Pert. #  2: Fermi energy shift (Ry) =    -6.2116E-21    -1.3322E-37
     Pert. #  3: Fermi energy shift (Ry) =    -1.4682E-20    -6.2693E-38

      iter #   1 total cpu time :   156.6 secs   av.it.:   5.3
      thresh= 1.000E-02 alpha_mix =  0.700 |ddv_scf|^2 =  1.990E-08
 
     Pert. #  1: Fermi energy shift (Ry) =     9.0350E-21     6.1224E-41
     Pert. #  2: Fermi energy shift (Ry) =     1.2423E-20     7.6530E-41
     Pert. #  3: Fermi energy shift (Ry) =     9.0350E-21     1.2245E-40

      iter #   2 total cpu time :   176.3 secs   av.it.:  12.3
      thresh= 1.411E-05 alpha_mix =  0.700 |ddv_scf|^2 =  4.838E-10
 
     Pert. #  1: Fermi energy shift (Ry) =     3.1623E-20    -7.6530E-42
     Pert. #  2: Fermi energy shift (Ry) =    -6.7763E-21    -5.9310E-41
     Pert. #  3: Fermi energy shift (Ry) =     6.7763E-21    -2.2959E-41

      iter #   3 total cpu time :   195.9 secs   av.it.:  12.1
      thresh= 2.199E-06 alpha_mix =  0.700 |ddv_scf|^2 =  2.499E-11

     End of self-consistent calculation

     Convergence has been achieved 


     Representation #  5 modes #  10 11 12

     Self-consistent Calculation
 
     Pert. #  1: Fermi energy shift (Ry) =    -5.0596E-19     5.0154E-37
     Pert. #  2: Fermi energy shift (Ry) =    -1.0842E-19     9.4040E-38
     Pert. #  3: Fermi energy shift (Ry) =    -1.8635E-19    -8.1893E-37

      iter #   1 total cpu time :   211.4 secs   av.it.:   5.6
      thresh= 1.000E-02 alpha_mix =  0.700 |ddv_scf|^2 =  1.793E-08
 
     Pert. #  1: Fermi energy shift (Ry) =    -7.2280E-19     1.0714E-39
     Pert. #  2: Fermi energy shift (Ry) =    -5.5114E-19    -7.1938E-40
     Pert. #  3: Fermi energy shift (Ry) =     2.6653E-19    -2.5542E-40

      iter #   2 total cpu time :   231.7 secs   av.it.:  12.7
      thresh= 1.339E-05 alpha_mix =  0.700 |ddv_scf|^2 =  8.846E-10
 
     Pert. #  1: Fermi energy shift (Ry) =    -3.3249E-18    -4.5918E-41
     Pert. #  2: Fermi energy shift (Ry) =     2.9364E-18     1.0331E-40
     Pert. #  3: Fermi energy shift (Ry) =    -5.9405E-19    -8.8487E-42

      iter #   3 total cpu time :   251.9 secs   av.it.:  12.7
      thresh= 2.974E-06 alpha_mix =  0.700 |ddv_scf|^2 =  2.701E-10
 
     Pert. #  1: Fermi energy shift (Ry) =     7.2280E-19     3.0612E-41
     Pert. #  2: Fermi energy shift (Ry) =    -2.3672E-18    -4.0178E-40
     Pert. #  3: Fermi energy shift (Ry) =    -4.8337E-19     1.1958E-42

      iter #   4 total cpu time :   272.0 secs   av.it.:  12.4
      thresh= 1.643E-06 alpha_mix =  0.700 |ddv_scf|^2 =  4.033E-11

     End of self-consistent calculation

     Convergence has been achieved 


     Representation #  6 modes #  13 14 15

     Self-consistent Calculation
 
     Pert. #  1: Fermi energy shift (Ry) =     7.5894E-19     3.2600E-36
     Pert. #  2: Fermi energy shift (Ry) =     7.2224E-19     9.6391E-37
     Pert. #  3: Fermi energy shift (Ry) =     4.4389E-19     1.4341E-36

      iter #   1 total cpu time :   287.0 secs   av.it.:   5.3
      thresh= 1.000E-02 alpha_mix =  0.700 |ddv_scf|^2 =  1.367E-08
 
     Pert. #  1: Fermi energy shift (Ry) =    -2.1684E-18     0.0000E+00
     Pert. #  2: Fermi energy shift (Ry) =     1.8172E-18    -7.0790E-41
     Pert. #  3: Fermi energy shift (Ry) =    -7.7883E-20     2.8364E-40

      iter #   2 total cpu time :   307.2 secs   av.it.:  12.7
      thresh= 1.169E-05 alpha_mix =  0.700 |ddv_scf|^2 =  3.076E-09
 
     Pert. #  1: Fermi energy shift (Ry) =    -1.0119E-18    -8.5713E-40
     Pert. #  2: Fermi energy shift (Ry) =     4.6982E-19     5.7397E-41
     Pert. #  3: Fermi energy shift (Ry) =     1.9806E-19     2.8651E-40

      iter #   3 total cpu time :   327.2 secs   av.it.:  12.6
      thresh= 5.546E-06 alpha_mix =  0.700 |ddv_scf|^2 =  1.082E-09
 
     Pert. #  1: Fermi energy shift (Ry) =     5.7824E-19    -9.1835E-41
     Pert. #  2: Fermi energy shift (Ry) =    -1.9199E-20    -6.6963E-42
     Pert. #  3: Fermi energy shift (Ry) =     1.6808E-19     6.1224E-41

      iter #   4 total cpu time :   347.0 secs   av.it.:  12.0
      thresh= 3.290E-06 alpha_mix =  0.700 |ddv_scf|^2 =  1.093E-11

     End of self-consistent calculation

     Convergence has been achieved 


     Representation #  7 modes #  16 17 18

     Self-consistent Calculation
 
     Pert. #  1: Fermi energy shift (Ry) =    -3.4694E-18     5.0154E-37
     Pert. #  2: Fermi energy shift (Ry) =    -2.3130E-18     5.0154E-37
     Pert. #  3: Fermi energy shift (Ry) =     0.0000E+00     5.0154E-37

      iter #   1 total cpu time :   363.2 secs   av.it.:   6.2
      thresh= 1.000E-02 alpha_mix =  0.700 |ddv_scf|^2 =  1.561E-07
 
     Pert. #  1: Fermi energy shift (Ry) =    -5.7824E-19    -4.8979E-40
     Pert. #  2: Fermi energy shift (Ry) =     2.8912E-19    -4.8979E-40
     Pert. #  3: Fermi energy shift (Ry) =    -2.8912E-19    -4.8979E-40

      iter #   2 total cpu time :   383.6 secs   av.it.:  12.8
      thresh= 3.951E-05 alpha_mix =  0.700 |ddv_scf|^2 =  1.412E-07
 
     Pert. #  1: Fermi energy shift (Ry) =     1.4456E-19    -9.7958E-40
     Pert. #  2: Fermi energy shift (Ry) =     1.3010E-18    -1.4694E-39
     Pert. #  3: Fermi energy shift (Ry) =    -1.4456E-19     0.0000E+00

      iter #   3 total cpu time :   403.1 secs   av.it.:  12.0
      thresh= 3.758E-05 alpha_mix =  0.700 |ddv_scf|^2 =  2.059E-09
 
     Pert. #  1: Fermi energy shift (Ry) =     7.2280E-19    -3.0612E-41
     Pert. #  2: Fermi energy shift (Ry) =     2.8912E-19    -1.2245E-40
     Pert. #  3: Fermi energy shift (Ry) =    -1.3010E-18     0.0000E+00

      iter #   4 total cpu time :   422.9 secs   av.it.:  12.2
      thresh= 4.538E-06 alpha_mix =  0.700 |ddv_scf|^2 =  1.223E-12

     End of self-consistent calculation

     Convergence has been achieved 


     Representation #  8 modes #  19 20 21

     Self-consistent Calculation
 
     Pert. #  1: Fermi energy shift (Ry) =     8.6736E-19    -1.5046E-36
     Pert. #  2: Fermi energy shift (Ry) =    -2.3130E-18     4.7333E-36
     Pert. #  3: Fermi energy shift (Ry) =    -1.7347E-18    -1.1034E-35

      iter #   1 total cpu time :   438.1 secs   av.it.:   5.2
      thresh= 1.000E-02 alpha_mix =  0.700 |ddv_scf|^2 =  8.781E-09
 
     Pert. #  1: Fermi energy shift (Ry) =     2.0238E-18     6.1224E-40
     Pert. #  2: Fermi energy shift (Ry) =    -1.8070E-20    -4.9744E-40
     Pert. #  3: Fermi energy shift (Ry) =    -8.6736E-19     4.5306E-39

      iter #   2 total cpu time :   458.4 secs   av.it.:  12.8
      thresh= 9.371E-06 alpha_mix =  0.700 |ddv_scf|^2 =  1.554E-09
 
     Pert. #  1: Fermi energy shift (Ry) =     2.4575E-18     1.5306E-41
     Pert. #  2: Fermi energy shift (Ry) =    -4.5175E-19     9.9488E-41
     Pert. #  3: Fermi energy shift (Ry) =    -4.6259E-18    -3.0612E-41

      iter #   3 total cpu time :   478.8 secs   av.it.:  12.7
      thresh= 3.942E-06 alpha_mix =  0.700 |ddv_scf|^2 =  7.702E-10
 
     Pert. #  1: Fermi energy shift (Ry) =     2.6021E-18     6.8877E-41
     Pert. #  2: Fermi energy shift (Ry) =     1.0029E-18     1.4158E-40
     Pert. #  3: Fermi energy shift (Ry) =    -2.4575E-18    -4.5918E-41

      iter #   4 total cpu time :   498.7 secs   av.it.:  12.2
      thresh= 2.775E-06 alpha_mix =  0.700 |ddv_scf|^2 =  1.033E-11

     End of self-consistent calculation

     Convergence has been achieved 


     Representation #  9 modes #  22 23 24

     Self-consistent Calculation
 
     Pert. #  1: Fermi energy shift (Ry) =    -1.5195E-18     5.3325E-37
     Pert. #  2: Fermi energy shift (Ry) =    -8.2787E-19    -1.0137E-36
     Pert. #  3: Fermi energy shift (Ry) =    -2.0238E-18     6.2693E-37

      iter #   1 total cpu time :   514.6 secs   av.it.:   6.0
      thresh= 1.000E-02 alpha_mix =  0.700 |ddv_scf|^2 =  2.224E-07
 
     Pert. #  1: Fermi energy shift (Ry) =    -1.1045E-18     2.2069E-39
     Pert. #  2: Fermi energy shift (Ry) =    -8.5844E-19    -1.9807E-39
     Pert. #  3: Fermi energy shift (Ry) =    -1.4456E-18    -9.7958E-40

      iter #   2 total cpu time :   534.8 secs   av.it.:  12.7
      thresh= 4.716E-05 alpha_mix =  0.700 |ddv_scf|^2 =  2.465E-07
 
     Pert. #  1: Fermi energy shift (Ry) =     7.6899E-19    -5.0649E-39
     Pert. #  2: Fermi energy shift (Ry) =    -1.7909E-19     1.5593E-39
     Pert. #  3: Fermi energy shift (Ry) =    -2.1684E-19     0.0000E+00

      iter #   3 total cpu time :   554.1 secs   av.it.:  12.0
      thresh= 4.965E-05 alpha_mix =  0.700 |ddv_scf|^2 =  1.082E-09
 
     Pert. #  1: Fermi energy shift (Ry) =     2.1809E-19     1.4297E-40
     Pert. #  2: Fermi energy shift (Ry) =    -1.4941E-19    -3.9162E-41
     Pert. #  3: Fermi energy shift (Ry) =    -3.9754E-19    -6.1224E-41

      iter #   4 total cpu time :   574.0 secs   av.it.:  12.2
      thresh= 3.290E-06 alpha_mix =  0.700 |ddv_scf|^2 =  1.024E-11

     End of self-consistent calculation

     Convergence has been achieved 
 
     Number of q in the star =    1
     List of q in the star:
          1   0.000000000   0.000000000   0.000000000

     Diagonalizing the dynamical matrix

     q = (    0.000000000   0.000000000   0.000000000 ) 

 **************************************************************************
     freq (    1) =     -11.046510 [THz] =    -368.471905 [cm-1]
     freq (    2) =     -11.046510 [THz] =    -368.471905 [cm-1]
     freq (    3) =     -11.046510 [THz] =    -368.471905 [cm-1]
     freq (    4) =      -4.001166 [THz] =    -133.464540 [cm-1]
     freq (    5) =      -4.001166 [THz] =    -133.464540 [cm-1]
     freq (    6) =      -4.001166 [THz] =    -133.464540 [cm-1]
     freq (    7) =      20.072244 [THz] =     669.538005 [cm-1]
     freq (    8) =      20.072244 [THz] =     669.538005 [cm-1]
     freq (    9) =      20.072244 [THz] =     669.538005 [cm-1]
     freq (   10) =      21.964646 [THz] =     732.661713 [cm-1]
     freq (   11) =      21.964646 [THz] =     732.661713 [cm-1]
     freq (   12) =      21.964646 [THz] =     732.661713 [cm-1]
     freq (   13) =      28.814496 [THz] =     961.148113 [cm-1]
     freq (   14) =      29.674119 [THz] =     989.822071 [cm-1]
     freq (   15) =      29.674119 [THz] =     989.822071 [cm-1]
     freq (   16) =      29.674119 [THz] =     989.822071 [cm-1]
     freq (   17) =      31.733189 [THz] =    1058.505251 [cm-1]
     freq (   18) =      31.733189 [THz] =    1058.505251 [cm-1]
     freq (   19) =      31.733189 [THz] =    1058.505251 [cm-1]
     freq (   20) =      33.345449 [THz] =    1112.284447 [cm-1]
     freq (   21) =      33.345449 [THz] =    1112.284447 [cm-1]
     freq (   22) =      35.357445 [THz] =    1179.397419 [cm-1]
     freq (   23) =      35.357445 [THz] =    1179.397419 [cm-1]
     freq (   24) =      35.357445 [THz] =    1179.397419 [cm-1]
 **************************************************************************

     Mode symmetry, T_d (-43m)  point group:

     freq (  1 -  3) =       -368.5  [cm-1]   --> T_2  G_15 P_4   I+R
     freq (  4 -  6) =       -133.5  [cm-1]   --> T_2  G_15 P_4   I+R
     freq (  7 -  9) =        669.5  [cm-1]   --> T_2  G_15 P_4   I+R
     freq ( 10 - 12) =        732.7  [cm-1]   --> T_1  G_25 P_5      
     freq ( 13 - 13) =        961.1  [cm-1]   --> A_1  G_1  P_1   R  
     freq ( 14 - 16) =        989.8  [cm-1]   --> T_1  G_25 P_5      
     freq ( 17 - 19) =       1058.5  [cm-1]   --> T_2  G_15 P_4   I+R
     freq ( 20 - 21) =       1112.3  [cm-1]   --> E    G_12 P_3   R  
     freq ( 22 - 24) =       1179.4  [cm-1]   --> T_2  G_15 P_4   I+R
     electron-phonon interaction  ...

     Gaussian Broadening:   0.005 Ry, ngauss=   0
     DOS =  7.186115 states/spin/Ry/Unit Cell at Ef= 17.160782 eV
     lambda(    1)= -0.1280   gamma=  107.22 GHz
     lambda(    2)= -0.1280   gamma=  107.22 GHz
     lambda(    3)= -0.1280   gamma=  107.22 GHz
     lambda(    4)= -0.0042   gamma=    0.46 GHz
     lambda(    5)= -0.0042   gamma=    0.46 GHz
     lambda(    6)= -0.0042   gamma=    0.46 GHz
     lambda(    7)=  0.0854   gamma=  236.04 GHz
     lambda(    8)=  0.0854   gamma=  236.04 GHz
     lambda(    9)=  0.0854   gamma=  236.04 GHz
     lambda(   10)=  0.0011   gamma=    3.72 GHz
     lambda(   11)=  0.0011   gamma=    3.72 GHz
     lambda(   12)=  0.0011   gamma=    3.72 GHz
     lambda(   13)=  0.1909   gamma= 1087.84 GHz
     lambda(   14)=  0.0002   gamma=    1.02 GHz
     lambda(   15)=  0.0002   gamma=    1.02 GHz
     lambda(   16)=  0.0002   gamma=    1.02 GHz
     lambda(   17)=  0.0559   gamma=  386.48 GHz
     lambda(   18)=  0.0559   gamma=  386.48 GHz
     lambda(   19)=  0.0559   gamma=  386.48 GHz
     lambda(   20)=  0.1087   gamma=  829.58 GHz
     lambda(   21)=  0.1087   gamma=  829.58 GHz
     lambda(   22)=  0.0613   gamma=  525.97 GHz
     lambda(   23)=  0.0613   gamma=  525.97 GHz
     lambda(   24)=  0.0613   gamma=  525.97 GHz
     Gaussian Broadening:   0.010 Ry, ngauss=   0
     DOS =  6.686815 states/spin/Ry/Unit Cell at Ef= 17.160406 eV
     lambda(    1)= -0.1115   gamma=   86.85 GHz
     lambda(    2)= -0.1115   gamma=   86.85 GHz
     lambda(    3)= -0.1115   gamma=   86.85 GHz
     lambda(    4)= -0.0040   gamma=    0.40 GHz
     lambda(    5)= -0.0040   gamma=    0.40 GHz
     lambda(    6)= -0.0040   gamma=    0.40 GHz
     lambda(    7)=  0.0611   gamma=  157.28 GHz
     lambda(    8)=  0.0611   gamma=  157.28 GHz
     lambda(    9)=  0.0611   gamma=  157.28 GHz
     lambda(   10)=  0.0005   gamma=    1.40 GHz
     lambda(   11)=  0.0005   gamma=    1.40 GHz
     lambda(   12)=  0.0005   gamma=    1.40 GHz
     lambda(   13)=  0.1274   gamma=  675.36 GHz
     lambda(   14)=  0.0001   gamma=    0.67 GHz
     lambda(   15)=  0.0001   gamma=    0.67 GHz
     lambda(   16)=  0.0001   gamma=    0.67 GHz
     lambda(   17)=  0.0433   gamma=  278.66 GHz
     lambda(   18)=  0.0433   gamma=  278.66 GHz
     lambda(   19)=  0.0433   gamma=  278.66 GHz
     lambda(   20)=  0.0473   gamma=  335.49 GHz
     lambda(   21)=  0.0473   gamma=  335.49 GHz
     lambda(   22)=  0.0312   gamma=  248.94 GHz
     lambda(   23)=  0.0312   gamma=  248.94 GHz
     lambda(   24)=  0.0312   gamma=  248.94 GHz
     Gaussian Broadening:   0.015 Ry, ngauss=   0
     DOS =  6.566387 states/spin/Ry/Unit Cell at Ef= 17.159410 eV
     lambda(    1)= -0.1185   gamma=   90.65 GHz
     lambda(    2)= -0.1185   gamma=   90.65 GHz
     lambda(    3)= -0.1185   gamma=   90.65 GHz
     lambda(    4)= -0.0043   gamma=    0.43 GHz
     lambda(    5)= -0.0043   gamma=    0.43 GHz
     lambda(    6)= -0.0043   gamma=    0.43 GHz
     lambda(    7)=  0.0510   gamma=  128.81 GHz
     lambda(    8)=  0.0510   gamma=  128.81 GHz
     lambda(    9)=  0.0510   gamma=  128.81 GHz
     lambda(   10)=  0.0003   gamma=    0.86 GHz
     lambda(   11)=  0.0003   gamma=    0.86 GHz
     lambda(   12)=  0.0003   gamma=    0.86 GHz
     lambda(   13)=  0.0966   gamma=  503.05 GHz
     lambda(   14)=  0.0002   gamma=    0.94 GHz
     lambda(   15)=  0.0002   gamma=    0.94 GHz
     lambda(   16)=  0.0002   gamma=    0.94 GHz
     lambda(   17)=  0.0399   gamma=  252.14 GHz
     lambda(   18)=  0.0399   gamma=  252.14 GHz
     lambda(   19)=  0.0399   gamma=  252.14 GHz
     lambda(   20)=  0.0303   gamma=  211.26 GHz
     lambda(   21)=  0.0303   gamma=  211.26 GHz
     lambda(   22)=  0.0216   gamma=  169.10 GHz
     lambda(   23)=  0.0216   gamma=  169.10 GHz
     lambda(   24)=  0.0216   gamma=  169.10 GHz
     Gaussian Broadening:   0.020 Ry, ngauss=   0
     DOS =  6.622308 states/spin/Ry/Unit Cell at Ef= 17.152355 eV
     lambda(    1)= -0.1107   gamma=   85.41 GHz
     lambda(    2)= -0.1107   gamma=   85.41 GHz
     lambda(    3)= -0.1107   gamma=   85.41 GHz
     lambda(    4)= -0.0039   gamma=    0.39 GHz
     lambda(    5)= -0.0039   gamma=    0.39 GHz
     lambda(    6)= -0.0039   gamma=    0.39 GHz
     lambda(    7)=  0.0405   gamma=  103.13 GHz
     lambda(    8)=  0.0405   gamma=  103.13 GHz
     lambda(    9)=  0.0405   gamma=  103.13 GHz
     lambda(   10)=  0.0002   gamma=    0.66 GHz
     lambda(   11)=  0.0002   gamma=    0.66 GHz
     lambda(   12)=  0.0002   gamma=    0.66 GHz
     lambda(   13)=  0.0762   gamma=  400.22 GHz
     lambda(   14)=  0.0004   gamma=    2.19 GHz
     lambda(   15)=  0.0004   gamma=    2.19 GHz
     lambda(   16)=  0.0004   gamma=    2.19 GHz
     lambda(   17)=  0.0344   gamma=  218.81 GHz
     lambda(   18)=  0.0344   gamma=  218.81 GHz
     lambda(   19)=  0.0344   gamma=  218.81 GHz
     lambda(   20)=  0.0224   gamma=  157.49 GHz
     lambda(   21)=  0.0224   gamma=  157.49 GHz
     lambda(   22)=  0.0160   gamma=  126.50 GHz
     lambda(   23)=  0.0160   gamma=  126.50 GHz
     lambda(   24)=  0.0160   gamma=  126.50 GHz
     Gaussian Broadening:   0.025 Ry, ngauss=   0
     DOS =  6.717457 states/spin/Ry/Unit Cell at Ef= 17.140651 eV
     lambda(    1)= -0.1089   gamma=   85.21 GHz
     lambda(    2)= -0.1089   gamma=   85.21 GHz
     lambda(    3)= -0.1089   gamma=   85.21 GHz
     lambda(    4)= -0.0036   gamma=    0.37 GHz
     lambda(    5)= -0.0036   gamma=    0.37 GHz
     lambda(    6)= -0.0036   gamma=    0.37 GHz
     lambda(    7)=  0.0329   gamma=   85.06 GHz
     lambda(    8)=  0.0329   gamma=   85.06 GHz
     lambda(    9)=  0.0329   gamma=   85.06 GHz
     lambda(   10)=  0.0002   gamma=    0.60 GHz
     lambda(   11)=  0.0002   gamma=    0.60 GHz
     lambda(   12)=  0.0002   gamma=    0.60 GHz
     lambda(   13)=  0.0630   gamma=  335.68 GHz
     lambda(   14)=  0.0009   gamma=    5.01 GHz
     lambda(   15)=  0.0009   gamma=    5.00 GHz
     lambda(   16)=  0.0009   gamma=    5.01 GHz
     lambda(   17)=  0.0304   gamma=  196.35 GHz
     lambda(   18)=  0.0304   gamma=  196.35 GHz
     lambda(   19)=  0.0304   gamma=  196.35 GHz
     lambda(   20)=  0.0183   gamma=  130.86 GHz
     lambda(   21)=  0.0183   gamma=  130.87 GHz
     lambda(   22)=  0.0126   gamma=  100.95 GHz
     lambda(   23)=  0.0126   gamma=  100.95 GHz
     lambda(   24)=  0.0126   gamma=  100.95 GHz
     Gaussian Broadening:   0.030 Ry, ngauss=   0
     DOS =  6.788186 states/spin/Ry/Unit Cell at Ef= 17.126191 eV
     lambda(    1)= -0.1141   gamma=   90.26 GHz
     lambda(    2)= -0.1141   gamma=   90.26 GHz
     lambda(    3)= -0.1141   gamma=   90.26 GHz
     lambda(    4)= -0.0037   gamma=    0.38 GHz
     lambda(    5)= -0.0037   gamma=    0.38 GHz
     lambda(    6)= -0.0037   gamma=    0.38 GHz
     lambda(    7)=  0.0280   gamma=   73.06 GHz
     lambda(    8)=  0.0280   gamma=   73.06 GHz
     lambda(    9)=  0.0280   gamma=   73.06 GHz
     lambda(   10)=  0.0002   gamma=    0.60 GHz
     lambda(   11)=  0.0002   gamma=    0.60 GHz
     lambda(   12)=  0.0002   gamma=    0.60 GHz
     lambda(   13)=  0.0544   gamma=  292.71 GHz
     lambda(   14)=  0.0017   gamma=    9.57 GHz
     lambda(   15)=  0.0017   gamma=    9.57 GHz
     lambda(   16)=  0.0017   gamma=    9.57 GHz
     lambda(   17)=  0.0279   gamma=  182.08 GHz
     lambda(   18)=  0.0279   gamma=  182.08 GHz
     lambda(   19)=  0.0279   gamma=  182.08 GHz
     lambda(   20)=  0.0163   gamma=  117.25 GHz
     lambda(   21)=  0.0163   gamma=  117.26 GHz
     lambda(   22)=  0.0105   gamma=   84.79 GHz
     lambda(   23)=  0.0105   gamma=   84.79 GHz
     lambda(   24)=  0.0105   gamma=   84.79 GHz
     Gaussian Broadening:   0.035 Ry, ngauss=   0
     DOS =  6.828054 states/spin/Ry/Unit Cell at Ef= 17.109701 eV
     lambda(    1)= -0.1234   gamma=   98.19 GHz
     lambda(    2)= -0.1234   gamma=   98.19 GHz
     lambda(    3)= -0.1234   gamma=   98.18 GHz
     lambda(    4)= -0.0039   gamma=    0.40 GHz
     lambda(    5)= -0.0039   gamma=    0.40 GHz
     lambda(    6)= -0.0039   gamma=    0.40 GHz
     lambda(    7)=  0.0247   gamma=   64.93 GHz
     lambda(    8)=  0.0247   gamma=   64.93 GHz
     lambda(    9)=  0.0247   gamma=   64.93 GHz
     lambda(   10)=  0.0002   gamma=    0.65 GHz
     lambda(   11)=  0.0002   gamma=    0.65 GHz
     lambda(   12)=  0.0002   gamma=    0.65 GHz
     lambda(   13)=  0.0483   gamma=  261.71 GHz
     lambda(   14)=  0.0027   gamma=   15.63 GHz
     lambda(   15)=  0.0027   gamma=   15.62 GHz
     lambda(   16)=  0.0027   gamma=   15.62 GHz
     lambda(   17)=  0.0262   gamma=  172.11 GHz
     lambda(   18)=  0.0262   gamma=  172.11 GHz
     lambda(   19)=  0.0262   gamma=  172.11 GHz
     lambda(   20)=  0.0151   gamma=  109.66 GHz
     lambda(   21)=  0.0151   gamma=  109.66 GHz
     lambda(   22)=  0.0091   gamma=   74.20 GHz
     lambda(   23)=  0.0091   gamma=   74.20 GHz
     lambda(   24)=  0.0091   gamma=   74.20 GHz
     Gaussian Broadening:   0.040 Ry, ngauss=   0
     DOS =  6.841382 states/spin/Ry/Unit Cell at Ef= 17.091527 eV
     lambda(    1)= -0.1345   gamma=  107.21 GHz
     lambda(    2)= -0.1345   gamma=  107.22 GHz
     lambda(    3)= -0.1345   gamma=  107.20 GHz
     lambda(    4)= -0.0041   gamma=    0.43 GHz
     lambda(    5)= -0.0041   gamma=    0.43 GHz
     lambda(    6)= -0.0041   gamma=    0.43 GHz
     lambda(    7)=  0.0225   gamma=   59.14 GHz
     lambda(    8)=  0.0225   gamma=   59.15 GHz
     lambda(    9)=  0.0225   gamma=   59.15 GHz
     lambda(   10)=  0.0002   gamma=    0.72 GHz
     lambda(   11)=  0.0002   gamma=    0.72 GHz
     lambda(   12)=  0.0002   gamma=    0.72 GHz
     lambda(   13)=  0.0438   gamma=  237.73 GHz
     lambda(   14)=  0.0039   gamma=   22.45 GHz
     lambda(   15)=  0.0039   gamma=   22.44 GHz
     lambda(   16)=  0.0039   gamma=   22.44 GHz
     lambda(   17)=  0.0250   gamma=  164.28 GHz
     lambda(   18)=  0.0250   gamma=  164.28 GHz
     lambda(   19)=  0.0250   gamma=  164.28 GHz
     lambda(   20)=  0.0144   gamma=  104.66 GHz
     lambda(   21)=  0.0144   gamma=  104.66 GHz
     lambda(   22)=  0.0082   gamma=   67.12 GHz
     lambda(   23)=  0.0082   gamma=   67.11 GHz
     lambda(   24)=  0.0082   gamma=   67.11 GHz
     Gaussian Broadening:   0.045 Ry, ngauss=   0
     DOS =  6.833110 states/spin/Ry/Unit Cell at Ef= 17.071899 eV
     lambda(    1)= -0.1460   gamma=  116.27 GHz
     lambda(    2)= -0.1460   gamma=  116.28 GHz
     lambda(    3)= -0.1460   gamma=  116.23 GHz
     lambda(    4)= -0.0044   gamma=    0.46 GHz
     lambda(    5)= -0.0045   gamma=    0.46 GHz
     lambda(    6)= -0.0045   gamma=    0.46 GHz
     lambda(    7)=  0.0208   gamma=   54.80 GHz
     lambda(    8)=  0.0208   gamma=   54.81 GHz
     lambda(    9)=  0.0208   gamma=   54.81 GHz
     lambda(   10)=  0.0003   gamma=    0.81 GHz
     lambda(   11)=  0.0003   gamma=    0.81 GHz
     lambda(   12)=  0.0003   gamma=    0.82 GHz
     lambda(   13)=  0.0403   gamma=  218.40 GHz
     lambda(   14)=  0.0051   gamma=   29.36 GHz
     lambda(   15)=  0.0051   gamma=   29.34 GHz
     lambda(   16)=  0.0051   gamma=   29.34 GHz
     lambda(   17)=  0.0240   gamma=  157.53 GHz
     lambda(   18)=  0.0240   gamma=  157.53 GHz
     lambda(   19)=  0.0240   gamma=  157.53 GHz
     lambda(   20)=  0.0139   gamma=  100.77 GHz
     lambda(   21)=  0.0139   gamma=  100.77 GHz
     lambda(   22)=  0.0076   gamma=   62.36 GHz
     lambda(   23)=  0.0076   gamma=   62.35 GHz
     lambda(   24)=  0.0076   gamma=   62.36 GHz
     Gaussian Broadening:   0.050 Ry, ngauss=   0
     DOS =  6.807766 states/spin/Ry/Unit Cell at Ef= 17.050981 eV
     lambda(    1)= -0.1575   gamma=  124.94 GHz
     lambda(    2)= -0.1575   gamma=  124.95 GHz
     lambda(    3)= -0.1574   gamma=  124.86 GHz
     lambda(    4)= -0.0048   gamma=    0.50 GHz
     lambda(    5)= -0.0048   gamma=    0.50 GHz
     lambda(    6)= -0.0048   gamma=    0.50 GHz
     lambda(    7)=  0.0196   gamma=   51.39 GHz
     lambda(    8)=  0.0196   gamma=   51.40 GHz
     lambda(    9)=  0.0196   gamma=   51.40 GHz
     lambda(   10)=  0.0003   gamma=    0.92 GHz
     lambda(   11)=  0.0003   gamma=    0.91 GHz
     lambda(   12)=  0.0003   gamma=    0.92 GHz
     lambda(   13)=  0.0375   gamma=  202.50 GHz
     lambda(   14)=  0.0063   gamma=   35.94 GHz
     lambda(   15)=  0.0063   gamma=   35.90 GHz
     lambda(   16)=  0.0063   gamma=   35.90 GHz
     lambda(   17)=  0.0231   gamma=  151.40 GHz
     lambda(   18)=  0.0231   gamma=  151.39 GHz
     lambda(   19)=  0.0231   gamma=  151.39 GHz
     lambda(   20)=  0.0135   gamma=   97.43 GHz
     lambda(   21)=  0.0135   gamma=   97.43 GHz
     lambda(   22)=  0.0073   gamma=   59.24 GHz
     lambda(   23)=  0.0073   gamma=   59.21 GHz
     lambda(   24)=  0.0073   gamma=   59.24 GHz
     Gaussian Broadening:   0.055 Ry, ngauss=   0
     DOS =  6.769389 states/spin/Ry/Unit Cell at Ef= 17.028873 eV
     lambda(    1)= -0.1689   gamma=  133.21 GHz
     lambda(    2)= -0.1689   gamma=  133.22 GHz
     lambda(    3)= -0.1687   gamma=  133.09 GHz
     lambda(    4)= -0.0051   gamma=    0.53 GHz
     lambda(    5)= -0.0051   gamma=    0.53 GHz
     lambda(    6)= -0.0051   gamma=    0.53 GHz
     lambda(    7)=  0.0187   gamma=   48.61 GHz
     lambda(    8)=  0.0187   gamma=   48.62 GHz
     lambda(    9)=  0.0187   gamma=   48.62 GHz
     lambda(   10)=  0.0003   gamma=    1.04 GHz
     lambda(   11)=  0.0003   gamma=    1.03 GHz
     lambda(   12)=  0.0003   gamma=    1.04 GHz
     lambda(   13)=  0.0353   gamma=  189.34 GHz
     lambda(   14)=  0.0074   gamma=   41.98 GHz
     lambda(   15)=  0.0074   gamma=   41.94 GHz
     lambda(   16)=  0.0074   gamma=   41.93 GHz
     lambda(   17)=  0.0224   gamma=  145.71 GHz
     lambda(   18)=  0.0224   gamma=  145.70 GHz
     lambda(   19)=  0.0224   gamma=  145.69 GHz
     lambda(   20)=  0.0131   gamma=   94.51 GHz
     lambda(   21)=  0.0131   gamma=   94.51 GHz
     lambda(   22)=  0.0071   gamma=   57.31 GHz
     lambda(   23)=  0.0071   gamma=   57.26 GHz
     lambda(   24)=  0.0071   gamma=   57.30 GHz
     Gaussian Broadening:   0.060 Ry, ngauss=   0
     DOS =  6.721461 states/spin/Ry/Unit Cell at Ef= 17.005634 eV
     lambda(    1)= -0.1803   gamma=  141.24 GHz
     lambda(    2)= -0.1803   gamma=  141.24 GHz
     lambda(    3)= -0.1801   gamma=  141.07 GHz
     lambda(    4)= -0.0055   gamma=    0.56 GHz
     lambda(    5)= -0.0055   gamma=    0.56 GHz
     lambda(    6)= -0.0055   gamma=    0.56 GHz
     lambda(    7)=  0.0179   gamma=   46.28 GHz
     lambda(    8)=  0.0179   gamma=   46.30 GHz
     lambda(    9)=  0.0179   gamma=   46.30 GHz
     lambda(   10)=  0.0004   gamma=    1.17 GHz
     lambda(   11)=  0.0004   gamma=    1.15 GHz
     lambda(   12)=  0.0004   gamma=    1.17 GHz
     lambda(   13)=  0.0335   gamma=  178.48 GHz
     lambda(   14)=  0.0084   gamma=   47.43 GHz
     lambda(   15)=  0.0084   gamma=   47.39 GHz
     lambda(   16)=  0.0084   gamma=   47.36 GHz
     lambda(   17)=  0.0217   gamma=  140.42 GHz
     lambda(   18)=  0.0217   gamma=  140.41 GHz
     lambda(   19)=  0.0217   gamma=  140.39 GHz
     lambda(   20)=  0.0129   gamma=   92.01 GHz
     lambda(   21)=  0.0129   gamma=   92.01 GHz
     lambda(   22)=  0.0070   gamma=   56.27 GHz
     lambda(   23)=  0.0070   gamma=   56.21 GHz
     lambda(   24)=  0.0070   gamma=   56.27 GHz
     Gaussian Broadening:   0.065 Ry, ngauss=   0
     DOS =  6.666856 states/spin/Ry/Unit Cell at Ef= 16.981287 eV
     lambda(    1)= -0.1920   gamma=  149.16 GHz
     lambda(    2)= -0.1920   gamma=  149.16 GHz
     lambda(    3)= -0.1917   gamma=  148.95 GHz
     lambda(    4)= -0.0058   gamma=    0.60 GHz
     lambda(    5)= -0.0058   gamma=    0.60 GHz
     lambda(    6)= -0.0058   gamma=    0.60 GHz
     lambda(    7)=  0.0173   gamma=   44.30 GHz
     lambda(    8)=  0.0173   gamma=   44.32 GHz
     lambda(    9)=  0.0173   gamma=   44.32 GHz
     lambda(   10)=  0.0004   gamma=    1.30 GHz
     lambda(   11)=  0.0004   gamma=    1.28 GHz
     lambda(   12)=  0.0004   gamma=    1.30 GHz
     lambda(   13)=  0.0321   gamma=  169.53 GHz
     lambda(   14)=  0.0093   gamma=   52.27 GHz
     lambda(   15)=  0.0093   gamma=   52.23 GHz
     lambda(   16)=  0.0093   gamma=   52.18 GHz
     lambda(   17)=  0.0211   gamma=  135.52 GHz
     lambda(   18)=  0.0211   gamma=  135.49 GHz
     lambda(   19)=  0.0211   gamma=  135.47 GHz
     lambda(   20)=  0.0127   gamma=   89.96 GHz
     lambda(   21)=  0.0127   gamma=   89.95 GHz
     lambda(   22)=  0.0070   gamma=   55.89 GHz
     lambda(   23)=  0.0070   gamma=   55.82 GHz
     lambda(   24)=  0.0070   gamma=   55.90 GHz
     Gaussian Broadening:   0.070 Ry, ngauss=   0
     DOS =  6.607845 states/spin/Ry/Unit Cell at Ef= 16.955837 eV
     lambda(    1)= -0.2039   gamma=  157.04 GHz
     lambda(    2)= -0.2039   gamma=  157.02 GHz
     lambda(    3)= -0.2036   gamma=  156.78 GHz
     lambda(    4)= -0.0062   gamma=    0.63 GHz
     lambda(    5)= -0.0062   gamma=    0.63 GHz
     lambda(    6)= -0.0062   gamma=    0.63 GHz
     lambda(    7)=  0.0168   gamma=   42.59 GHz
     lambda(    8)=  0.0168   gamma=   42.61 GHz
     lambda(    9)=  0.0168   gamma=   42.62 GHz
     lambda(   10)=  0.0005   gamma=    1.44 GHz
     lambda(   11)=  0.0005   gamma=    1.42 GHz
     lambda(   12)=  0.0005   gamma=    1.44 GHz
     lambda(   13)=  0.0310   gamma=  162.16 GHz
     lambda(   14)=  0.0102   gamma=   56.52 GHz
     lambda(   15)=  0.0102   gamma=   56.49 GHz
     lambda(   16)=  0.0102   gamma=   56.40 GHz
     lambda(   17)=  0.0206   gamma=  130.97 GHz
     lambda(   18)=  0.0206   gamma=  130.94 GHz
     lambda(   19)=  0.0206   gamma=  130.91 GHz
     lambda(   20)=  0.0126   gamma=   88.31 GHz
     lambda(   21)=  0.0126   gamma=   88.30 GHz
     lambda(   22)=  0.0071   gamma=   55.99 GHz
     lambda(   23)=  0.0071   gamma=   55.92 GHz
     lambda(   24)=  0.0071   gamma=   56.01 GHz
     Gaussian Broadening:   0.075 Ry, ngauss=   0
     DOS =  6.546139 states/spin/Ry/Unit Cell at Ef= 16.929269 eV
     lambda(    1)= -0.2161   gamma=  164.84 GHz
     lambda(    2)= -0.2161   gamma=  164.81 GHz
     lambda(    3)= -0.2157   gamma=  164.55 GHz
     lambda(    4)= -0.0066   gamma=    0.66 GHz
     lambda(    5)= -0.0066   gamma=    0.66 GHz
     lambda(    6)= -0.0066   gamma=    0.66 GHz
     lambda(    7)=  0.0163   gamma=   41.09 GHz
     lambda(    8)=  0.0163   gamma=   41.11 GHz
     lambda(    9)=  0.0163   gamma=   41.12 GHz
     lambda(   10)=  0.0005   gamma=    1.57 GHz
     lambda(   11)=  0.0005   gamma=    1.56 GHz
     lambda(   12)=  0.0005   gamma=    1.57 GHz
     lambda(   13)=  0.0301   gamma=  156.04 GHz
     lambda(   14)=  0.0109   gamma=   60.21 GHz
     lambda(   15)=  0.0109   gamma=   60.18 GHz
     lambda(   16)=  0.0109   gamma=   60.07 GHz
     lambda(   17)=  0.0201   gamma=  126.78 GHz
     lambda(   18)=  0.0201   gamma=  126.74 GHz
     lambda(   19)=  0.0201   gamma=  126.70 GHz
     lambda(   20)=  0.0125   gamma=   87.02 GHz
     lambda(   21)=  0.0125   gamma=   87.01 GHz
     lambda(   22)=  0.0072   gamma=   56.42 GHz
     lambda(   23)=  0.0072   gamma=   56.34 GHz
     lambda(   24)=  0.0072   gamma=   56.44 GHz
 
 
     Number of q in the star =    1
     List of q in the star:
          1   0.000000000   0.000000000   0.000000000

     Calculation of q =    0.0000000   0.0000000   0.3310519

     Subspace diagonalization in iterative solution of the eigenvalue problem:
     one sub-group per band group will be used
     scalapack distributed-memory algorithm (size of sub-group:  2*  2 procs)

 
     Parallelization info
     --------------------
     sticks:   dense  smooth     PW     G-vecs:    dense   smooth      PW
     Min         164      54     17                 6390     1222     213
     Max         166      55     18                 6392     1227     216
     Sum        2637     877    277               102255    19597    3431
 

     Title: 
     default                                                                    


     bravais-lattice index     =            0
     lattice parameter (alat)  =       6.7500  a.u.
     unit-cell volume          =     313.9491 (a.u.)^3
     number of atoms/cell      =            8
     number of atomic types    =            2
     number of electrons       =        33.00
     number of Kohn-Sham states=           24
     kinetic-energy cutoff     =      60.0000  Ry
     charge density cutoff     =     720.0000  Ry
     Exchange-correlation      = PBE ( 1  4  3  4 0 0)

     celldm(1)=   6.750000  celldm(2)=   0.000000  celldm(3)=   0.000000
     celldm(4)=   0.000000  celldm(5)=   0.000000  celldm(6)=   0.000000

     crystal axes: (cart. coord. in units of alat)
               a(1) = (   1.006891   0.000000   0.000000 )  
               a(2) = (   0.000000   1.006891   0.000000 )  
               a(3) = (   0.000000   0.000000   1.006891 )  

     reciprocal axes: (cart. coord. in units 2 pi/alat)
               b(1) = (  0.993156  0.000000  0.000000 )  
               b(2) = (  0.000000  0.993156  0.000000 )  
               b(3) = (  0.000000  0.000000  0.993156 )  


     PseudoPot. # 1 for C  read from file:
     ./C.UPF
     MD5 check sum: 3eea53a8c0c024778a530aaaebd3d0de
     Pseudo is Ultrasoft + core correction, Zval =  4.0
     Generated using "atomic" code by A. Dal Corso v.6.3MaX
     Using radial grid of 1073 points,  4 beta functions with: 
                l(1) =   0
                l(2) =   0
                l(3) =   1
                l(4) =   1
     Q(r) pseudized with 0 coefficients 


     PseudoPot. # 2 for N  read from file:
     ./N.UPF
     MD5 check sum: 42a680678ad2bd58dacd1baf6c773b6b
     Pseudo is Ultrasoft + core correction, Zval =  5.0
     Generated using "atomic" code by A. Dal Corso v.6.3MaX
     Using radial grid of 1085 points,  4 beta functions with: 
                l(1) =   0
                l(2) =   0
                l(3) =   1
                l(4) =   1
     Q(r) pseudized with 0 coefficients 


     atomic species   valence    mass     pseudopotential
        C              4.00    12.01100     C ( 1.00)
        N              5.00    14.00000     N ( 1.00)

     24 Sym. Ops. (no inversion) found



   Cartesian axes

     site n.     atom                  positions (alat units)
         1           C   tau(   1) = (  -0.0102620  -0.0102620   0.0102620  )
         2           C   tau(   2) = (  -0.0102620   0.5137077   0.4931838  )
         3           C   tau(   3) = (   0.5137077  -0.0102620   0.4931838  )
         4           C   tau(   4) = (   0.5137077   0.5137077   0.0102620  )
         5           N   tau(   5) = (   0.2517229   0.2517229   0.7551686  )
         6           C   tau(   6) = (   0.2517229   0.7551686   0.2517229  )
         7           C   tau(   7) = (   0.7551686   0.2517229   0.2517229  )
         8           C   tau(   8) = (   0.7551686   0.7551686   0.7551686  )

     number of k points=  1920  mv smearing, width (Ry)=  0.0300

     Number of k-points >= 100: set verbosity='high' to print them.

     Dense  grid:   102255 G-vectors     FFT dimensions: (  60,  60,  60)

     Smooth grid:    19597 G-vectors     FFT dimensions: (  36,  36,  36)

     Estimated max dynamical RAM per process >       8.46 MB

     Estimated total dynamical RAM >     135.43 MB

     Check: negative core charge=   -0.000001

     The potential is recalculated from file :
     /scratch/job/tmp/_ph0/C.q_2/C.save/charge-density

     Starting wfcs are   32 atomic wfcs

     Band Structure Calculation
     Davidson diagonalization with overlap

     ethr =  3.03E-11,  avg # of iterations = 22.8

     total cpu time spent up to now is      251.2 secs

     End of band structure calculation

     Number of k-points >= 100: set verbosity='high' to print the bands.

     the Fermi energy is    17.1610 ev

     Writing output data file C.save/

Possibly too few bands at point    1   0.00000   0.00000   0.00000

Possibly too few bands at point    3   0.00000   0.00000   0.06621

Possibly too few bands at point  241   0.06621   0.00000   0.00000

Possibly too few bands at point  243   0.00000   0.00000  -0.06621

Possibly too few bands at point  256   0.00000   0.00000   0.06621

Possibly too few bands at point  260   0.00000   0.00000  -0.00000

Possibly too few bands at point  264   0.00000   0.00000  -0.06621

Possibly too few bands at point  314   0.00000   0.06621  -0.00000

     default                                                                    

     bravais-lattice index     =            0
     lattice parameter (alat)  =       6.7500  a.u.
     unit-cell volume          =     313.9491 (a.u.)^3
     number of atoms/cell      =            8
     number of atomic types    =            2
     kinetic-energy cut-off    =      60.0000  Ry
     charge density cut-off    =     720.0000  Ry
     convergence threshold     =      1.0E-10
     beta                      =       0.7000
     number of iterations used =            4
     Exchange-correlation      = PBE ( 1  4  3  4 0 0)


     celldm(1)=    6.75000  celldm(2)=    0.00000  celldm(3)=    0.00000
     celldm(4)=    0.00000  celldm(5)=    0.00000  celldm(6)=    0.00000

     crystal axes: (cart. coord. in units of alat)
               a(1) = (  1.0069  0.0000  0.0000 )  
               a(2) = (  0.0000  1.0069  0.0000 )  
               a(3) = (  0.0000  0.0000  1.0069 )  

     reciprocal axes: (cart. coord. in units 2 pi/alat)
               b(1) = (  0.9932  0.0000  0.0000 )  
               b(2) = (  0.0000  0.9932  0.0000 )  
               b(3) = (  0.0000  0.0000  0.9932 )  


     Atoms inside the unit cell: 

     Cartesian axes

     site n.  atom      mass           positions (alat units)
        1     C   12.0110   tau(    1) = (   -0.01026   -0.01026    0.01026  )
        2     C   12.0110   tau(    2) = (   -0.01026    0.51371    0.49318  )
        3     C   12.0110   tau(    3) = (    0.51371   -0.01026    0.49318  )
        4     C   12.0110   tau(    4) = (    0.51371    0.51371    0.01026  )
        5     N   14.0000   tau(    5) = (    0.25172    0.25172    0.75517  )
        6     C   12.0110   tau(    6) = (    0.25172    0.75517    0.25172  )
        7     C   12.0110   tau(    7) = (    0.75517    0.25172    0.25172  )
        8     C   12.0110   tau(    8) = (    0.75517    0.75517    0.75517  )

     Computing dynamical matrix for 
                    q = (   0.0000000   0.0000000   0.3310519 )
 
      4 Sym.Ops. (no q -> -q+G )


     G cutoff =  830.9604  (   6392 G-vectors)     FFT grid: ( 60, 60, 60)
     G cutoff =  276.9868  (   1227 G-vectors)  smooth grid: ( 36, 36, 36)

     number of k points=  1920  mv smearing, width (Ry)=  0.0300

     PseudoPot. # 1 for C  read from file:
     ./C.UPF
     MD5 check sum: 3eea53a8c0c024778a530aaaebd3d0de
     Pseudo is Ultrasoft + core correction, Zval =  4.0
     Generated using "atomic" code by A. Dal Corso v.6.3MaX
     Using radial grid of 1073 points,  4 beta functions with: 
                l(1) =   0
                l(2) =   0
                l(3) =   1
                l(4) =   1
     Q(r) pseudized with 0 coefficients 


     PseudoPot. # 2 for N  read from file:
     ./N.UPF
     MD5 check sum: 42a680678ad2bd58dacd1baf6c773b6b
     Pseudo is Ultrasoft + core correction, Zval =  5.0
     Generated using "atomic" code by A. Dal Corso v.6.3MaX
     Using radial grid of 1085 points,  4 beta functions with: 
                l(1) =   0
                l(2) =   0
                l(3) =   1
                l(4) =   1
     Q(r) pseudized with 0 coefficients 


     Mode symmetry, C_2v (mm2)  point group:


     Atomic displacements:
     There are  24 irreducible representations

     Representation     1      1 modes -A_1  D_1  S_1  To be done

     Representation     2      1 modes -A_1  D_1  S_1  To be done

     Representation     3      1 modes -A_1  D_1  S_1  To be done

     Representation     4      1 modes -A_1  D_1  S_1  To be done

     Representation     5      1 modes -A_1  D_1  S_1  To be done

     Representation     6      1 modes -A_1  D_1  S_1  To be done

     Representation     7      1 modes -A_1  D_1  S_1  To be done

     Representation     8      1 modes -A_2  D_2  S_2  To be done

     Representation     9      1 modes -A_2  D_2  S_2  To be done

     Representation    10      1 modes -A_2  D_2  S_2  To be done

     Representation    11      1 modes -B_1  D_3  S_3  To be done

     Representation    12      1 modes -B_1  D_3  S_3  To be done

     Representation    13      1 modes -B_1  D_3  S_3  To be done

     Representation    14      1 modes -B_1  D_3  S_3  To be done

     Representation    15      1 modes -B_1  D_3  S_3  To be done

     Representation    16      1 modes -B_1  D_3  S_3  To be done

     Representation    17      1 modes -B_1  D_3  S_3  To be done

     Representation    18      1 modes -B_2  D_4  S_4  To be done

     Representation    19      1 modes -B_2  D_4  S_4  To be done

     Representation    20      1 modes -B_2  D_4  S_4  To be done

     Representation    21      1 modes -B_2  D_4  S_4  To be done

     Representation    22      1 modes -B_2  D_4  S_4  To be done

     Representation    23      1 modes -B_2  D_4  S_4  To be done

     Representation    24      1 modes -B_2  D_4  S_4  To be done



     Alpha used in Ewald sum =   2.8000
     PHONON       :  51m33.24s CPU  38m48.92s WALL



     Representation #  1 mode #   1

     Self-consistent Calculation

      iter #   1 total cpu time :  2364.8 secs   av.it.:   6.5
      thresh= 1.000E-02 alpha_mix =  0.700 |ddv_scf|^2 =  2.830E-04

      iter #   2 total cpu time :  2412.3 secs   av.it.:  10.5
      thresh= 1.682E-03 alpha_mix =  0.700 |ddv_scf|^2 =  1.684E-02

      iter #   3 total cpu time :  2451.8 secs   av.it.:   8.1
      thresh= 1.000E-02 alpha_mix =  0.700 |ddv_scf|^2 =  1.290E-05

      iter #   4 total cpu time :  2498.2 secs   av.it.:  10.2
      thresh= 3.592E-04 alpha_mix =  0.700 |ddv_scf|^2 =  1.182E-06

      iter #   5 total cpu time :  2544.3 secs   av.it.:  10.2
      thresh= 1.087E-04 alpha_mix =  0.700 |ddv_scf|^2 =  8.414E-08

      iter #   6 total cpu time :  2590.9 secs   av.it.:  10.3
      thresh= 2.901E-05 alpha_mix =  0.700 |ddv_scf|^2 =  5.776E-10

      iter #   7 total cpu time :  2640.5 secs   av.it.:  11.2
      thresh= 2.403E-06 alpha_mix =  0.700 |ddv_scf|^2 =  1.909E-09

      iter #   8 total cpu time :  2683.3 secs   av.it.:   9.1
      thresh= 4.370E-06 alpha_mix =  0.700 |ddv_scf|^2 =  9.605E-10

      iter #   9 total cpu time :  2727.4 secs   av.it.:   9.6
      thresh= 3.099E-06 alpha_mix =  0.700 |ddv_scf|^2 =  3.598E-11

     End of self-consistent calculation

     Convergence has been achieved 


     Representation #  2 mode #   2

     Self-consistent Calculation

      iter #   1 total cpu time :  2770.3 secs   av.it.:   6.0
      thresh= 1.000E-02 alpha_mix =  0.700 |ddv_scf|^2 =  8.903E-06

      iter #   2 total cpu time :  2819.5 secs   av.it.:  11.0
      thresh= 2.984E-04 alpha_mix =  0.700 |ddv_scf|^2 =  5.337E-04

      iter #   3 total cpu time :  2858.2 secs   av.it.:   7.8
      thresh= 2.310E-03 alpha_mix =  0.700 |ddv_scf|^2 =  1.087E-06

      iter #   4 total cpu time :  2906.6 secs   av.it.:  10.7
      thresh= 1.043E-04 alpha_mix =  0.700 |ddv_scf|^2 =  2.612E-07

      iter #   5 total cpu time :  2952.4 secs   av.it.:  10.0
      thresh= 5.111E-05 alpha_mix =  0.700 |ddv_scf|^2 =  4.634E-08

      iter #   6 total cpu time :  2998.7 secs   av.it.:  10.2
      thresh= 2.153E-05 alpha_mix =  0.700 |ddv_scf|^2 =  1.156E-09

      iter #   7 total cpu time :  3047.1 secs   av.it.:  10.8
      thresh= 3.400E-06 alpha_mix =  0.700 |ddv_scf|^2 =  4.839E-10

      iter #   8 total cpu time :  3091.0 secs   av.it.:   9.3
      thresh= 2.200E-06 alpha_mix =  0.700 |ddv_scf|^2 =  1.099E-09

      iter #   9 total cpu time :  3135.7 secs   av.it.:   9.5
      thresh= 3.315E-06 alpha_mix =  0.700 |ddv_scf|^2 =  1.103E-11

     End of self-consistent calculation

     Convergence has been achieved 


     Representation #  3 mode #   3

     Self-consistent Calculation

      iter #   1 total cpu time :  3179.3 secs   av.it.:   6.2
      thresh= 1.000E-02 alpha_mix =  0.700 |ddv_scf|^2 =  7.072E-05

      iter #   2 total cpu time :  3227.0 secs   av.it.:  10.5
      thresh= 8.409E-04 alpha_mix =  0.700 |ddv_scf|^2 =  4.090E-03

      iter #   3 total cpu time :  3265.2 secs   av.it.:   7.7
      thresh= 6.396E-03 alpha_mix =  0.700 |ddv_scf|^2 =  4.553E-06

      iter #   4 total cpu time :  3312.0 secs   av.it.:  10.4
      thresh= 2.134E-04 alpha_mix =  0.700 |ddv_scf|^2 =  5.151E-07

      iter #   5 total cpu time :  3357.8 secs   av.it.:  10.1
      thresh= 7.177E-05 alpha_mix =  0.700 |ddv_scf|^2 =  7.416E-08

      iter #   6 total cpu time :  3404.5 secs   av.it.:  10.4
      thresh= 2.723E-05 alpha_mix =  0.700 |ddv_scf|^2 =  1.847E-09

      iter #   7 total cpu time :  3452.2 secs   av.it.:  10.7
      thresh= 4.297E-06 alpha_mix =  0.700 |ddv_scf|^2 =  1.917E-09

      iter #   8 total cpu time :  3492.0 secs   av.it.:   8.3
      thresh= 4.378E-06 alpha_mix =  0.700 |ddv_scf|^2 =  3.028E-10

      iter #   9 total cpu time :  3536.1 secs   av.it.:   9.6
      thresh= 1.740E-06 alpha_mix =  0.700 |ddv_scf|^2 =  3.063E-11

     End of self-consistent calculation

     Convergence has been achieved 


     Representation #  4 mode #   4

     Self-consistent Calculation

      iter #   1 total cpu time :  3580.4 secs   av.it.:   6.5
      thresh= 1.000E-02 alpha_mix =  0.700 |ddv_scf|^2 =  3.249E-04

      iter #   2 total cpu time :  3628.0 secs   av.it.:  10.5
      thresh= 1.803E-03 alpha_mix =  0.700 |ddv_scf|^2 =  2.000E-02

      iter #   3 total cpu time :  3667.9 secs   av.it.:   8.2
      thresh= 1.000E-02 alpha_mix =  0.700 |ddv_scf|^2 =  8.717E-06

      iter #   4 total cpu time :  3714.4 secs   av.it.:  10.3
      thresh= 2.952E-04 alpha_mix =  0.700 |ddv_scf|^2 =  1.984E-06

      iter #   5 total cpu time :  3760.4 secs   av.it.:  10.2
      thresh= 1.408E-04 alpha_mix =  0.700 |ddv_scf|^2 =  2.966E-07

      iter #   6 total cpu time :  3805.6 secs   av.it.:  10.0
      thresh= 5.446E-05 alpha_mix =  0.700 |ddv_scf|^2 =  2.121E-10

      iter #   7 total cpu time :  3855.3 secs   av.it.:  11.2
      thresh= 1.456E-06 alpha_mix =  0.700 |ddv_scf|^2 =  3.248E-11

     End of self-consistent calculation

     Convergence has been achieved 


     Representation #  5 mode #   5

     Self-consistent Calculation

      iter #   1 total cpu time :  3899.1 secs   av.it.:   6.3
      thresh= 1.000E-02 alpha_mix =  0.700 |ddv_scf|^2 =  1.427E-04

      iter #   2 total cpu time :  3946.9 secs   av.it.:  10.4
      thresh= 1.195E-03 alpha_mix =  0.700 |ddv_scf|^2 =  8.209E-03

      iter #   3 total cpu time :  3985.4 secs   av.it.:   7.7
      thresh= 9.061E-03 alpha_mix =  0.700 |ddv_scf|^2 =  1.215E-05

      iter #   4 total cpu time :  4031.3 secs   av.it.:  10.0
      thresh= 3.486E-04 alpha_mix =  0.700 |ddv_scf|^2 =  6.760E-07

      iter #   5 total cpu time :  4077.1 secs   av.it.:  10.0
      thresh= 8.222E-05 alpha_mix =  0.700 |ddv_scf|^2 =  4.236E-08

      iter #   6 total cpu time :  4123.1 secs   av.it.:  10.1
      thresh= 2.058E-05 alpha_mix =  0.700 |ddv_scf|^2 =  1.829E-09

      iter #   7 total cpu time :  4170.1 secs   av.it.:  10.4
      thresh= 4.277E-06 alpha_mix =  0.700 |ddv_scf|^2 =  2.447E-11

     End of self-consistent calculation

     Convergence has been achieved 


     Representation #  6 mode #   6

     Self-consistent Calculation

      iter #   1 total cpu time :  4215.3 secs   av.it.:   6.4
      thresh= 1.000E-02 alpha_mix =  0.700 |ddv_scf|^2 =  2.211E-04

      iter #   2 total cpu time :  4263.1 secs   av.it.:  10.5
      thresh= 1.487E-03 alpha_mix =  0.700 |ddv_scf|^2 =  1.328E-02

      iter #   3 total cpu time :  4302.1 secs   av.it.:   7.9
      thresh= 1.000E-02 alpha_mix =  0.700 |ddv_scf|^2 =  9.549E-06

      iter #   4 total cpu time :  4348.2 secs   av.it.:  10.1
      thresh= 3.090E-04 alpha_mix =  0.700 |ddv_scf|^2 =  9.547E-07

      iter #   5 total cpu time :  4395.0 secs   av.it.:  10.3
      thresh= 9.771E-05 alpha_mix =  0.700 |ddv_scf|^2 =  3.687E-08

      iter #   6 total cpu time :  4443.5 secs   av.it.:  10.9
      thresh= 1.920E-05 alpha_mix =  0.700 |ddv_scf|^2 =  1.471E-09

      iter #   7 total cpu time :  4491.4 secs   av.it.:  10.6
      thresh= 3.835E-06 alpha_mix =  0.700 |ddv_scf|^2 =  1.191E-09

      iter #   8 total cpu time :  4535.2 secs   av.it.:   9.4
      thresh= 3.451E-06 alpha_mix =  0.700 |ddv_scf|^2 =  1.296E-09

      iter #   9 total cpu time :  4580.0 secs   av.it.:   9.7
      thresh= 3.600E-06 alpha_mix =  0.700 |ddv_scf|^2 =  1.735E-10

      iter #  10 total cpu time :  4624.8 secs   av.it.:   9.7
      thresh= 1.317E-06 alpha_mix =  0.700 |ddv_scf|^2 =  1.659E-11

     End of self-consistent calculation

     Convergence has been achieved 


     Representation #  7 mode #   7

     Self-consistent Calculation

      iter #   1 total cpu time :  4670.8 secs   av.it.:   6.7
      thresh= 1.000E-02 alpha_mix =  0.700 |ddv_scf|^2 =  2.129E-04

      iter #   2 total cpu time :  4718.5 secs   av.it.:  10.4
      thresh= 1.459E-03 alpha_mix =  0.700 |ddv_scf|^2 =  1.223E-02

      iter #   3 total cpu time :  4757.3 secs   av.it.:   7.9
      thresh= 1.000E-02 alpha_mix =  0.700 |ddv_scf|^2 =  1.791E-05

      iter #   4 total cpu time :  4803.3 secs   av.it.:  10.0
      thresh= 4.232E-04 alpha_mix =  0.700 |ddv_scf|^2 =  1.032E-06

      iter #   5 total cpu time :  4849.3 secs   av.it.:  10.1
      thresh= 1.016E-04 alpha_mix =  0.700 |ddv_scf|^2 =  3.535E-08

      iter #   6 total cpu time :  4897.0 secs   av.it.:  10.6
      thresh= 1.880E-05 alpha_mix =  0.700 |ddv_scf|^2 =  7.544E-09

      iter #   7 total cpu time :  4942.2 secs   av.it.:   9.9
      thresh= 8.685E-06 alpha_mix =  0.700 |ddv_scf|^2 =  9.185E-12

     End of self-consistent calculation

     Convergence has been achieved 


     Representation #  8 mode #   8

     Self-consistent Calculation

      iter #   1 total cpu time :  4983.9 secs   av.it.:   5.7
      thresh= 1.000E-02 alpha_mix =  0.700 |ddv_scf|^2 =  8.750E-07

      iter #   2 total cpu time :  5032.5 secs   av.it.:  11.1
      thresh= 9.354E-05 alpha_mix =  0.700 |ddv_scf|^2 =  4.071E-07

      iter #   3 total cpu time :  5079.4 secs   av.it.:  10.5
      thresh= 6.381E-05 alpha_mix =  0.700 |ddv_scf|^2 =  6.713E-09

      iter #   4 total cpu time :  5126.4 secs   av.it.:  10.6
      thresh= 8.193E-06 alpha_mix =  0.700 |ddv_scf|^2 =  1.174E-10

      iter #   5 total cpu time :  5172.7 secs   av.it.:  10.3
      thresh= 1.083E-06 alpha_mix =  0.700 |ddv_scf|^2 =  3.024E-12

     End of self-consistent calculation

     Convergence has been achieved 


     Representation #  9 mode #   9

     Self-consistent Calculation

      iter #   1 total cpu time :  5214.3 secs   av.it.:   5.7
      thresh= 1.000E-02 alpha_mix =  0.700 |ddv_scf|^2 =  8.750E-07

      iter #   2 total cpu time :  5263.3 secs   av.it.:  11.1
      thresh= 9.354E-05 alpha_mix =  0.700 |ddv_scf|^2 =  4.071E-07

      iter #   3 total cpu time :  5310.2 secs   av.it.:  10.5
      thresh= 6.381E-05 alpha_mix =  0.700 |ddv_scf|^2 =  6.713E-09

      iter #   4 total cpu time :  5357.4 secs   av.it.:  10.6
      thresh= 8.193E-06 alpha_mix =  0.700 |ddv_scf|^2 =  1.174E-10

      iter #   5 total cpu time :  5404.0 secs   av.it.:  10.3
      thresh= 1.083E-06 alpha_mix =  0.700 |ddv_scf|^2 =  3.024E-12

     End of self-consistent calculation

     Convergence has been achieved 


     Representation # 10 mode #  10

     Self-consistent Calculation

      iter #   1 total cpu time :  5444.7 secs   av.it.:   5.5
      thresh= 1.000E-02 alpha_mix =  0.700 |ddv_scf|^2 =  3.126E-07

      iter #   2 total cpu time :  5493.3 secs   av.it.:  11.0
      thresh= 5.591E-05 alpha_mix =  0.700 |ddv_scf|^2 =  2.585E-08

      iter #   3 total cpu time :  5541.2 secs   av.it.:  10.8
      thresh= 1.608E-05 alpha_mix =  0.700 |ddv_scf|^2 =  1.018E-09

      iter #   4 total cpu time :  5589.2 secs   av.it.:  10.8
      thresh= 3.191E-06 alpha_mix =  0.700 |ddv_scf|^2 =  2.723E-10

      iter #   5 total cpu time :  5636.2 secs   av.it.:  10.5
      thresh= 1.650E-06 alpha_mix =  0.700 |ddv_scf|^2 =  2.081E-12

     End of self-consistent calculation

     Convergence has been achieved 


     Representation # 11 mode #  11

     Self-consistent Calculation

      iter #   1 total cpu time :  5678.2 secs   av.it.:   5.8
      thresh= 1.000E-02 alpha_mix =  0.700 |ddv_scf|^2 =  7.314E-07

      iter #   2 total cpu time :  5728.6 secs   av.it.:  11.5
      thresh= 8.552E-05 alpha_mix =  0.700 |ddv_scf|^2 =  5.561E-07

      iter #   3 total cpu time :  5777.0 secs   av.it.:  10.9
      thresh= 7.457E-05 alpha_mix =  0.700 |ddv_scf|^2 =  1.116E-08

      iter #   4 total cpu time :  5825.6 secs   av.it.:  10.8
      thresh= 1.057E-05 alpha_mix =  0.700 |ddv_scf|^2 =  1.388E-10

      iter #   5 total cpu time :  5873.1 secs   av.it.:  10.7
      thresh= 1.178E-06 alpha_mix =  0.700 |ddv_scf|^2 =  4.245E-12

     End of self-consistent calculation

     Convergence has been achieved 


     Representation # 12 mode #  12

     Self-consistent Calculation

      iter #   1 total cpu time :  5914.1 secs   av.it.:   5.6
      thresh= 1.000E-02 alpha_mix =  0.700 |ddv_scf|^2 =  2.489E-07

      iter #   2 total cpu time :  5963.5 secs   av.it.:  11.2
      thresh= 4.989E-05 alpha_mix =  0.700 |ddv_scf|^2 =  2.339E-08

      iter #   3 total cpu time :  6012.2 secs   av.it.:  11.1
      thresh= 1.529E-05 alpha_mix =  0.700 |ddv_scf|^2 =  2.570E-09

      iter #   4 total cpu time :  6061.6 secs   av.it.:  11.2
      thresh= 5.070E-06 alpha_mix =  0.700 |ddv_scf|^2 =  4.823E-10

      iter #   5 total cpu time :  6109.9 secs   av.it.:  10.9
      thresh= 2.196E-06 alpha_mix =  0.700 |ddv_scf|^2 =  3.362E-12

     End of self-consistent calculation

     Convergence has been achieved 


     Representation # 13 mode #  13

     Self-consistent Calculation

      iter #   1 total cpu time :  6151.1 secs   av.it.:   5.7
      thresh= 1.000E-02 alpha_mix =  0.700 |ddv_scf|^2 =  5.820E-07

      iter #   2 total cpu time :  6201.7 secs   av.it.:  11.4
      thresh= 7.629E-05 alpha_mix =  0.700 |ddv_scf|^2 =  4.104E-07

      iter #   3 total cpu time :  6250.2 secs   av.it.:  10.9
      thresh= 6.406E-05 alpha_mix =  0.700 |ddv_scf|^2 =  1.102E-08

      iter #   4 total cpu time :  6298.5 secs   av.it.:  10.8
      thresh= 1.050E-05 alpha_mix =  0.700 |ddv_scf|^2 =  1.323E-10

      iter #   5 total cpu time :  6345.8 secs   av.it.:  10.6
      thresh= 1.150E-06 alpha_mix =  0.700 |ddv_scf|^2 =  4.199E-12

     End of self-consistent calculation

     Convergence has been achieved 


     Representation # 14 mode #  14

     Self-consistent Calculation

      iter #   1 total cpu time :  6388.9 secs   av.it.:   6.2
      thresh= 1.000E-02 alpha_mix =  0.700 |ddv_scf|^2 =  1.118E-06

      iter #   2 total cpu time :  6439.8 secs   av.it.:  11.5
      thresh= 1.057E-04 alpha_mix =  0.700 |ddv_scf|^2 =  7.346E-07

      iter #   3 total cpu time :  6488.5 secs   av.it.:  10.9
      thresh= 8.571E-05 alpha_mix =  0.700 |ddv_scf|^2 =  2.285E-08

      iter #   4 total cpu time :  6537.2 secs   av.it.:  10.9
      thresh= 1.511E-05 alpha_mix =  0.700 |ddv_scf|^2 =  3.663E-11

     End of self-consistent calculation

     Convergence has been achieved 


     Representation # 15 mode #  15

     Self-consistent Calculation

      iter #   1 total cpu time :  6579.1 secs   av.it.:   5.7
      thresh= 1.000E-02 alpha_mix =  0.700 |ddv_scf|^2 =  4.918E-07

      iter #   2 total cpu time :  6629.5 secs   av.it.:  11.4
      thresh= 7.013E-05 alpha_mix =  0.700 |ddv_scf|^2 =  3.537E-07

      iter #   3 total cpu time :  6678.1 secs   av.it.:  10.9
      thresh= 5.947E-05 alpha_mix =  0.700 |ddv_scf|^2 =  9.019E-09

      iter #   4 total cpu time :  6726.7 secs   av.it.:  10.9
      thresh= 9.497E-06 alpha_mix =  0.700 |ddv_scf|^2 =  1.288E-10

      iter #   5 total cpu time :  6774.3 secs   av.it.:  10.7
      thresh= 1.135E-06 alpha_mix =  0.700 |ddv_scf|^2 =  3.539E-12

     End of self-consistent calculation

     Convergence has been achieved 


     Representation # 16 mode #  16

     Self-consistent Calculation

      iter #   1 total cpu time :  6815.5 secs   av.it.:   5.6
      thresh= 1.000E-02 alpha_mix =  0.700 |ddv_scf|^2 =  1.538E-07

      iter #   2 total cpu time :  6865.6 secs   av.it.:  11.4
      thresh= 3.921E-05 alpha_mix =  0.700 |ddv_scf|^2 =  1.169E-08

      iter #   3 total cpu time :  6915.2 secs   av.it.:  11.2
      thresh= 1.081E-05 alpha_mix =  0.700 |ddv_scf|^2 =  2.037E-09

      iter #   4 total cpu time :  6964.8 secs   av.it.:  11.2
      thresh= 4.513E-06 alpha_mix =  0.700 |ddv_scf|^2 =  4.156E-10

      iter #   5 total cpu time :  7013.5 secs   av.it.:  11.0
      thresh= 2.039E-06 alpha_mix =  0.700 |ddv_scf|^2 =  6.294E-12

     End of self-consistent calculation

     Convergence has been achieved 


     Representation # 17 mode #  17

     Self-consistent Calculation

      iter #   1 total cpu time :  7054.3 secs   av.it.:   5.4
      thresh= 1.000E-02 alpha_mix =  0.700 |ddv_scf|^2 =  1.171E-07

      iter #   2 total cpu time :  7103.3 secs   av.it.:  11.1
      thresh= 3.422E-05 alpha_mix =  0.700 |ddv_scf|^2 =  5.375E-09

      iter #   3 total cpu time :  7152.9 secs   av.it.:  11.4
      thresh= 7.331E-06 alpha_mix =  0.700 |ddv_scf|^2 =  2.436E-09

      iter #   4 total cpu time :  7201.3 secs   av.it.:  11.0
      thresh= 4.935E-06 alpha_mix =  0.700 |ddv_scf|^2 =  2.069E-10

      iter #   5 total cpu time :  7249.3 secs   av.it.:  10.9
      thresh= 1.438E-06 alpha_mix =  0.700 |ddv_scf|^2 =  1.133E-12

     End of self-consistent calculation

     Convergence has been achieved 


     Representation # 18 mode #  18

     Self-consistent Calculation

      iter #   1 total cpu time :  7291.1 secs   av.it.:   5.6
      thresh= 1.000E-02 alpha_mix =  0.700 |ddv_scf|^2 =  4.195E-07

      iter #   2 total cpu time :  7341.6 secs   av.it.:  11.4
      thresh= 6.477E-05 alpha_mix =  0.700 |ddv_scf|^2 =  2.870E-07

      iter #   3 total cpu time :  7390.2 secs   av.it.:  10.9
      thresh= 5.358E-05 alpha_mix =  0.700 |ddv_scf|^2 =  8.771E-09

      iter #   4 total cpu time :  7438.7 secs   av.it.:  10.9
      thresh= 9.365E-06 alpha_mix =  0.700 |ddv_scf|^2 =  1.245E-10

      iter #   5 total cpu time :  7486.4 secs   av.it.:  10.7
      thresh= 1.116E-06 alpha_mix =  0.700 |ddv_scf|^2 =  3.547E-12

     End of self-consistent calculation

     Convergence has been achieved 


     Representation # 19 mode #  19

     Self-consistent Calculation

      iter #   1 total cpu time :  7528.3 secs   av.it.:   5.4
      thresh= 1.000E-02 alpha_mix =  0.700 |ddv_scf|^2 =  1.171E-07

      iter #   2 total cpu time :  7577.8 secs   av.it.:  11.1
      thresh= 3.422E-05 alpha_mix =  0.700 |ddv_scf|^2 =  5.375E-09

      iter #   3 total cpu time :  7627.9 secs   av.it.:  11.4
      thresh= 7.331E-06 alpha_mix =  0.700 |ddv_scf|^2 =  2.436E-09

      iter #   4 total cpu time :  7676.9 secs   av.it.:  11.0
      thresh= 4.936E-06 alpha_mix =  0.700 |ddv_scf|^2 =  2.069E-10

      iter #   5 total cpu time :  7725.5 secs   av.it.:  10.9
      thresh= 1.438E-06 alpha_mix =  0.700 |ddv_scf|^2 =  1.133E-12

     End of self-consistent calculation

     Convergence has been achieved 


     Representation # 20 mode #  20

     Self-consistent Calculation

      iter #   1 total cpu time :  7768.4 secs   av.it.:   5.6
      thresh= 1.000E-02 alpha_mix =  0.700 |ddv_scf|^2 =  1.842E-07

      iter #   2 total cpu time :  7818.7 secs   av.it.:  11.3
      thresh= 4.292E-05 alpha_mix =  0.700 |ddv_scf|^2 =  1.502E-08

      iter #   3 total cpu time :  7867.9 secs   av.it.:  11.1
      thresh= 1.226E-05 alpha_mix =  0.700 |ddv_scf|^2 =  1.625E-09

      iter #   4 total cpu time :  7917.9 secs   av.it.:  11.3
      thresh= 4.031E-06 alpha_mix =  0.700 |ddv_scf|^2 =  5.029E-10

      iter #   5 total cpu time :  7966.7 secs   av.it.:  10.9
      thresh= 2.242E-06 alpha_mix =  0.700 |ddv_scf|^2 =  4.250E-12

     End of self-consistent calculation

     Convergence has been achieved 


     Representation # 21 mode #  21

     Self-consistent Calculation

      iter #   1 total cpu time :  8008.9 secs   av.it.:   5.7
      thresh= 1.000E-02 alpha_mix =  0.700 |ddv_scf|^2 =  5.820E-07

      iter #   2 total cpu time :  8059.4 secs   av.it.:  11.4
      thresh= 7.629E-05 alpha_mix =  0.700 |ddv_scf|^2 =  4.104E-07

      iter #   3 total cpu time :  8108.0 secs   av.it.:  10.9
      thresh= 6.406E-05 alpha_mix =  0.700 |ddv_scf|^2 =  1.102E-08

      iter #   4 total cpu time :  8156.3 secs   av.it.:  10.8
      thresh= 1.050E-05 alpha_mix =  0.700 |ddv_scf|^2 =  1.323E-10

      iter #   5 total cpu time :  8204.0 secs   av.it.:  10.6
      thresh= 1.150E-06 alpha_mix =  0.700 |ddv_scf|^2 =  4.199E-12

     End of self-consistent calculation

     Convergence has been achieved 


     Representation # 22 mode #  22

     Self-consistent Calculation

      iter #   1 total cpu time :  8247.6 secs   av.it.:   6.2
      thresh= 1.000E-02 alpha_mix =  0.700 |ddv_scf|^2 =  1.118E-06

      iter #   2 total cpu time :  8298.6 secs   av.it.:  11.5
      thresh= 1.057E-04 alpha_mix =  0.700 |ddv_scf|^2 =  7.346E-07

      iter #   3 total cpu time :  8347.2 secs   av.it.:  10.9
      thresh= 8.571E-05 alpha_mix =  0.700 |ddv_scf|^2 =  2.285E-08

      iter #   4 total cpu time :  8395.7 secs   av.it.:  10.9
      thresh= 1.511E-05 alpha_mix =  0.700 |ddv_scf|^2 =  3.663E-11

     End of self-consistent calculation

     Convergence has been achieved 


     Representation # 23 mode #  23

     Self-consistent Calculation

      iter #   1 total cpu time :  8436.6 secs   av.it.:   5.5
      thresh= 1.000E-02 alpha_mix =  0.700 |ddv_scf|^2 =  2.185E-07

      iter #   2 total cpu time :  8486.1 secs   av.it.:  11.2
      thresh= 4.674E-05 alpha_mix =  0.700 |ddv_scf|^2 =  2.013E-08

      iter #   3 total cpu time :  8535.2 secs   av.it.:  11.1
      thresh= 1.419E-05 alpha_mix =  0.700 |ddv_scf|^2 =  2.936E-09

      iter #   4 total cpu time :  8584.6 secs   av.it.:  11.1
      thresh= 5.419E-06 alpha_mix =  0.700 |ddv_scf|^2 =  4.391E-10

      iter #   5 total cpu time :  8633.4 secs   av.it.:  11.0
      thresh= 2.096E-06 alpha_mix =  0.700 |ddv_scf|^2 =  5.002E-12

     End of self-consistent calculation

     Convergence has been achieved 


     Representation # 24 mode #  24

     Self-consistent Calculation

      iter #   1 total cpu time :  8675.3 secs   av.it.:   5.8
      thresh= 1.000E-02 alpha_mix =  0.700 |ddv_scf|^2 =  8.038E-07

      iter #   2 total cpu time :  8725.8 secs   av.it.:  11.4
      thresh= 8.966E-05 alpha_mix =  0.700 |ddv_scf|^2 =  6.229E-07

      iter #   3 total cpu time :  8774.4 secs   av.it.:  10.9
      thresh= 7.892E-05 alpha_mix =  0.700 |ddv_scf|^2 =  1.156E-08

      iter #   4 total cpu time :  8822.9 secs   av.it.:  10.8
      thresh= 1.075E-05 alpha_mix =  0.700 |ddv_scf|^2 =  1.429E-10

      iter #   5 total cpu time :  8870.5 secs   av.it.:  10.7
      thresh= 1.196E-06 alpha_mix =  0.700 |ddv_scf|^2 =  4.347E-12

     End of self-consistent calculation

     Convergence has been achieved 
 
     Number of q in the star =    6
     List of q in the star:
          1   0.000000000   0.000000000   0.331051900
          2   0.331051900   0.000000000   0.000000000
          3   0.000000000  -0.331051900   0.000000000
          4   0.000000000   0.331051900   0.000000000
          5  -0.331051900   0.000000000   0.000000000
          6   0.000000000   0.000000000  -0.331051900

     Diagonalizing the dynamical matrix

     q = (    0.000000000   0.000000000   0.331051900 ) 

 **************************************************************************
     freq (    1) =     -17.280472 [THz] =    -576.414515 [cm-1]
     freq (    2) =     -17.280472 [THz] =    -576.414515 [cm-1]
     freq (    3) =     -15.726118 [THz] =    -524.566838 [cm-1]
     freq (    4) =      10.856521 [THz] =     362.134559 [cm-1]
     freq (    5) =      10.856521 [THz] =     362.134559 [cm-1]
     freq (    6) =      12.287289 [THz] =     409.859854 [cm-1]
     freq (    7) =      18.005531 [THz] =     600.599874 [cm-1]
     freq (    8) =      18.005531 [THz] =     600.599874 [cm-1]
     freq (    9) =      21.049064 [THz] =     702.121191 [cm-1]
     freq (   10) =      23.904551 [THz] =     797.370003 [cm-1]
     freq (   11) =      24.125813 [THz] =     804.750505 [cm-1]
     freq (   12) =      24.125813 [THz] =     804.750505 [cm-1]
     freq (   13) =      24.840410 [THz] =     828.586880 [cm-1]
     freq (   14) =      27.026625 [THz] =     901.511161 [cm-1]
     freq (   15) =      29.637041 [THz] =     988.585273 [cm-1]
     freq (   16) =      29.637041 [THz] =     988.585273 [cm-1]
     freq (   17) =      29.829123 [THz] =     994.992440 [cm-1]
     freq (   18) =      32.207081 [THz] =    1074.312578 [cm-1]
     freq (   19) =      32.207081 [THz] =    1074.312578 [cm-1]
     freq (   20) =      32.300714 [THz] =    1077.435858 [cm-1]
     freq (   21) =      33.895654 [THz] =    1130.637303 [cm-1]
     freq (   22) =      34.534454 [THz] =    1151.945404 [cm-1]
     freq (   23) =      34.534454 [THz] =    1151.945404 [cm-1]
     freq (   24) =      36.425778 [THz] =    1215.033167 [cm-1]
 **************************************************************************

     Mode symmetry, C_2v (mm2)  point group:

     freq (  1 -  1) =       -576.4  [cm-1]   --> B_1  D_3  S_3      
     freq (  2 -  2) =       -576.4  [cm-1]   --> B_2  D_4  S_4      
     freq (  3 -  3) =       -524.6  [cm-1]   --> A_1  D_1  S_1      
     freq (  4 -  4) =        362.1  [cm-1]   --> B_1  D_3  S_3      
     freq (  5 -  5) =        362.1  [cm-1]   --> B_2  D_4  S_4      
     freq (  6 -  6) =        409.9  [cm-1]   --> A_1  D_1  S_1      
     freq (  7 -  7) =        600.6  [cm-1]   --> B_1  D_3  S_3      
     freq (  8 -  8) =        600.6  [cm-1]   --> B_2  D_4  S_4      
     freq (  9 -  9) =        702.1  [cm-1]   --> A_1  D_1  S_1      
     freq ( 10 - 10) =        797.4  [cm-1]   --> A_1  D_1  S_1      
     freq ( 11 - 11) =        804.8  [cm-1]   --> B_1  D_3  S_3      
     freq ( 12 - 12) =        804.8  [cm-1]   --> B_2  D_4  S_4      
     freq ( 13 - 13) =        828.6  [cm-1]   --> A_2  D_2  S_2      
     freq ( 14 - 14) =        901.5  [cm-1]   --> A_1  D_1  S_1      
     freq ( 15 - 15) =        988.6  [cm-1]   --> B_1  D_3  S_3      
     freq ( 16 - 16) =        988.6  [cm-1]   --> B_2  D_4  S_4      
     freq ( 17 - 17) =        995.0  [cm-1]   --> A_2  D_2  S_2      
     freq ( 18 - 18) =       1074.3  [cm-1]   --> B_1  D_3  S_3      
     freq ( 19 - 19) =       1074.3  [cm-1]   --> B_2  D_4  S_4      
     freq ( 20 - 20) =       1077.4  [cm-1]   --> A_2  D_2  S_2      
     freq ( 21 - 21) =       1130.6  [cm-1]   --> A_1  D_1  S_1      
     freq ( 22 - 22) =       1151.9  [cm-1]   --> B_1  D_3  S_3      
     freq ( 23 - 23) =       1151.9  [cm-1]   --> B_2  D_4  S_4      
     freq ( 24 - 24) =       1215.0  [cm-1]   --> A_1  D_1  S_1      
     electron-phonon interaction  ...

     Gaussian Broadening:   0.005 Ry, ngauss=   0
     DOS =  7.186115 states/spin/Ry/Unit Cell at Ef= 17.160782 eV
     lambda(    1)= -0.0302   gamma=   61.89 GHz
     lambda(    2)= -0.0302   gamma=   61.88 GHz
     lambda(    3)= -0.1268   gamma=  215.17 GHz
     lambda(    4)=  0.0024   gamma=    1.97 GHz
     lambda(    5)=  0.0024   gamma=    1.98 GHz
     lambda(    6)=  0.0034   gamma=    3.49 GHz
     lambda(    7)=  0.0028   gamma=    6.20 GHz
     lambda(    8)=  0.0028   gamma=    6.21 GHz
     lambda(    9)=  0.0064   gamma=   19.59 GHz
     lambda(   10)=  0.0062   gamma=   24.32 GHz
     lambda(   11)=  0.0003   gamma=    1.20 GHz
     lambda(   12)=  0.0003   gamma=    1.20 GHz
     lambda(   13)=  0.0000   gamma=    0.16 GHz
     lambda(   14)=  0.0041   gamma=   20.40 GHz
     lambda(   15)=  0.0015   gamma=    9.11 GHz
     lambda(   16)=  0.0015   gamma=    9.11 GHz
     lambda(   17)=  0.0024   gamma=   14.39 GHz
     lambda(   18)=  0.0006   gamma=    4.30 GHz
     lambda(   19)=  0.0006   gamma=    4.30 GHz
     lambda(   20)=  0.0019   gamma=   13.48 GHz
     lambda(   21)=  0.0014   gamma=   11.39 GHz
     lambda(   22)=  0.0002   gamma=    1.38 GHz
     lambda(   23)=  0.0002   gamma=    1.38 GHz
     lambda(   24)=  0.0013   gamma=   11.51 GHz
     Gaussian Broadening:   0.010 Ry, ngauss=   0
     DOS =  6.686815 states/spin/Ry/Unit Cell at Ef= 17.160406 eV
     lambda(    1)= -0.0819   gamma=  156.12 GHz
     lambda(    2)= -0.0819   gamma=  156.09 GHz
     lambda(    3)= -0.6665   gamma= 1052.55 GHz
     lambda(    4)=  0.0089   gamma=    6.67 GHz
     lambda(    5)=  0.0089   gamma=    6.68 GHz
     lambda(    6)=  0.0198   gamma=   19.07 GHz
     lambda(    7)=  0.0084   gamma=   17.46 GHz
     lambda(    8)=  0.0084   gamma=   17.48 GHz
     lambda(    9)=  0.0347   gamma=   98.07 GHz
     lambda(   10)=  0.0295   gamma=  107.57 GHz
[...]
     lambda(   20)=  0.0119   gamma=   83.45 GHz
     lambda(   21)=  0.0014   gamma=   10.26 GHz
     lambda(   22)=  0.0028   gamma=   21.66 GHz
     lambda(   23)=  0.0028   gamma=   21.66 GHz
     lambda(   24)=  0.0081   gamma=   65.05 GHz
     Gaussian Broadening:   0.030 Ry, ngauss=   0
     DOS =  6.788186 states/spin/Ry/Unit Cell at Ef= 17.126191 eV
     lambda(    1)= -0.3906   gamma= 1030.46 GHz
     lambda(    2)= -0.2690   gamma=  269.13 GHz
     lambda(    3)= -0.2690   gamma=  269.13 GHz
     lambda(    4)=  0.0093   gamma=   10.04 GHz
     lambda(    5)=  0.0093   gamma=   10.04 GHz
     lambda(    6)=  0.0156   gamma=   28.88 GHz
     lambda(    7)=  0.0156   gamma=   28.88 GHz
     lambda(    8)=  0.0307   gamma=   58.71 GHz
     lambda(    9)=  0.0003   gamma=    0.71 GHz
     lambda(   10)=  0.0062   gamma=   15.12 GHz
     lambda(   11)=  0.0062   gamma=   15.12 GHz
     lambda(   12)=  0.0203   gamma=   63.42 GHz
     lambda(   13)=  0.0202   gamma=   89.42 GHz
     lambda(   14)=  0.0055   gamma=   31.72 GHz
     lambda(   15)=  0.0055   gamma=   31.72 GHz
     lambda(   16)=  0.0064   gamma=   42.83 GHz
     lambda(   17)=  0.0099   gamma=   66.09 GHz
     lambda(   18)=  0.0099   gamma=   66.09 GHz
     lambda(   19)=  0.0122   gamma=   86.16 GHz
     lambda(   20)=  0.0122   gamma=   86.16 GHz
     lambda(   21)=  0.0014   gamma=   10.61 GHz
     lambda(   22)=  0.0031   gamma=   23.85 GHz
     lambda(   23)=  0.0031   gamma=   23.85 GHz
     lambda(   24)=  0.0085   gamma=   68.67 GHz
     Gaussian Broadening:   0.035 Ry, ngauss=   0
     DOS =  6.828054 states/spin/Ry/Unit Cell at Ef= 17.109701 eV
     lambda(    1)= -0.3821   gamma= 1014.03 GHz
     lambda(    2)= -0.2787   gamma=  280.52 GHz
     lambda(    3)= -0.2787   gamma=  280.52 GHz
     lambda(    4)=  0.0097   gamma=   10.53 GHz
     lambda(    5)=  0.0097   gamma=   10.53 GHz
     lambda(    6)=  0.0163   gamma=   30.25 GHz
     lambda(    7)=  0.0163   gamma=   30.24 GHz
     lambda(    8)=  0.0320   gamma=   61.72 GHz
     lambda(    9)=  0.0004   gamma=    0.82 GHz
     lambda(   10)=  0.0062   gamma=   15.18 GHz
     lambda(   11)=  0.0062   gamma=   15.18 GHz
     lambda(   12)=  0.0216   gamma=   67.94 GHz
     lambda(   13)=  0.0202   gamma=   90.11 GHz
     lambda(   14)=  0.0059   gamma=   34.00 GHz
     lambda(   15)=  0.0059   gamma=   34.00 GHz
     lambda(   16)=  0.0064   gamma=   43.32 GHz
     lambda(   17)=  0.0097   gamma=   65.34 GHz
     lambda(   18)=  0.0097   gamma=   65.34 GHz
     lambda(   19)=  0.0123   gamma=   87.31 GHz
     lambda(   20)=  0.0123   gamma=   87.31 GHz
     lambda(   21)=  0.0015   gamma=   10.99 GHz
     lambda(   22)=  0.0032   gamma=   25.30 GHz
     lambda(   23)=  0.0032   gamma=   25.30 GHz
     lambda(   24)=  0.0087   gamma=   70.66 GHz
     Gaussian Broadening:   0.040 Ry, ngauss=   0
     DOS =  6.841382 states/spin/Ry/Unit Cell at Ef= 17.091527 eV
     lambda(    1)= -0.3717   gamma=  988.24 GHz
     lambda(    2)= -0.2853   gamma=  287.72 GHz
     lambda(    3)= -0.2853   gamma=  287.73 GHz
     lambda(    4)=  0.0099   gamma=   10.77 GHz
     lambda(    5)=  0.0099   gamma=   10.77 GHz
     lambda(    6)=  0.0168   gamma=   31.27 GHz
     lambda(    7)=  0.0168   gamma=   31.26 GHz
     lambda(    8)=  0.0330   gamma=   63.68 GHz
     lambda(    9)=  0.0005   gamma=    0.93 GHz
     lambda(   10)=  0.0062   gamma=   15.10 GHz
     lambda(   11)=  0.0062   gamma=   15.10 GHz
     lambda(   12)=  0.0224   gamma=   70.46 GHz
     lambda(   13)=  0.0199   gamma=   88.84 GHz
     lambda(   14)=  0.0061   gamma=   35.76 GHz
     lambda(   15)=  0.0061   gamma=   35.77 GHz
     lambda(   16)=  0.0064   gamma=   43.17 GHz
     lambda(   17)=  0.0096   gamma=   64.61 GHz
     lambda(   18)=  0.0096   gamma=   64.60 GHz
     lambda(   19)=  0.0122   gamma=   87.14 GHz
     lambda(   20)=  0.0122   gamma=   87.15 GHz
     lambda(   21)=  0.0015   gamma=   11.40 GHz
     lambda(   22)=  0.0034   gamma=   26.32 GHz
     lambda(   23)=  0.0034   gamma=   26.32 GHz
     lambda(   24)=  0.0088   gamma=   71.56 GHz
     Gaussian Broadening:   0.045 Ry, ngauss=   0
     DOS =  6.833110 states/spin/Ry/Unit Cell at Ef= 17.071899 eV
     lambda(    1)= -0.3599   gamma=  955.77 GHz
     lambda(    2)= -0.2894   gamma=  291.42 GHz
     lambda(    3)= -0.2894   gamma=  291.44 GHz
     lambda(    4)=  0.0100   gamma=   10.84 GHz
     lambda(    5)=  0.0100   gamma=   10.85 GHz
     lambda(    6)=  0.0172   gamma=   31.89 GHz
     lambda(    7)=  0.0171   gamma=   31.88 GHz
     lambda(    8)=  0.0337   gamma=   64.89 GHz
     lambda(    9)=  0.0005   gamma=    1.04 GHz
     lambda(   10)=  0.0061   gamma=   14.91 GHz
     lambda(   11)=  0.0061   gamma=   14.91 GHz
     lambda(   12)=  0.0227   gamma=   71.58 GHz
     lambda(   13)=  0.0194   gamma=   86.37 GHz
     lambda(   14)=  0.0064   gamma=   37.04 GHz
     lambda(   15)=  0.0064   gamma=   37.05 GHz
     lambda(   16)=  0.0063   gamma=   42.57 GHz
     lambda(   17)=  0.0095   gamma=   63.92 GHz
     lambda(   18)=  0.0095   gamma=   63.91 GHz
     lambda(   19)=  0.0121   gamma=   85.97 GHz
     lambda(   20)=  0.0121   gamma=   85.98 GHz
     lambda(   21)=  0.0016   gamma=   11.85 GHz
     lambda(   22)=  0.0035   gamma=   27.12 GHz
     lambda(   23)=  0.0035   gamma=   27.11 GHz
     lambda(   24)=  0.0088   gamma=   71.72 GHz
     Gaussian Broadening:   0.050 Ry, ngauss=   0
     DOS =  6.807766 states/spin/Ry/Unit Cell at Ef= 17.050981 eV
     lambda(    1)= -0.3473   gamma=  918.88 GHz
     lambda(    2)= -0.2915   gamma=  292.45 GHz
     lambda(    3)= -0.2915   gamma=  292.48 GHz
     lambda(    4)=  0.0100   gamma=   10.80 GHz
     lambda(    5)=  0.0100   gamma=   10.80 GHz
     lambda(    6)=  0.0174   gamma=   32.15 GHz
     lambda(    7)=  0.0174   gamma=   32.14 GHz
     lambda(    8)=  0.0342   gamma=   65.59 GHz
     lambda(    9)=  0.0006   gamma=    1.14 GHz
     lambda(   10)=  0.0060   gamma=   14.64 GHz
     lambda(   11)=  0.0060   gamma=   14.65 GHz
     lambda(   12)=  0.0229   gamma=   71.73 GHz
     lambda(   13)=  0.0187   gamma=   83.23 GHz
     lambda(   14)=  0.0065   gamma=   37.89 GHz
     lambda(   15)=  0.0065   gamma=   37.91 GHz
     lambda(   16)=  0.0062   gamma=   41.65 GHz
     lambda(   17)=  0.0094   gamma=   63.33 GHz
     lambda(   18)=  0.0094   gamma=   63.33 GHz
     lambda(   19)=  0.0119   gamma=   84.10 GHz
     lambda(   20)=  0.0119   gamma=   84.12 GHz
     lambda(   21)=  0.0017   gamma=   12.38 GHz
     lambda(   22)=  0.0036   gamma=   27.81 GHz
     lambda(   23)=  0.0036   gamma=   27.81 GHz
     lambda(   24)=  0.0088   gamma=   71.38 GHz
     Gaussian Broadening:   0.055 Ry, ngauss=   0
     DOS =  6.769389 states/spin/Ry/Unit Cell at Ef= 17.028873 eV
     lambda(    1)= -0.3343   gamma=  879.57 GHz
     lambda(    2)= -0.2923   gamma=  291.59 GHz
     lambda(    3)= -0.2923   gamma=  291.62 GHz
     lambda(    4)=  0.0100   gamma=   10.69 GHz
     lambda(    5)=  0.0100   gamma=   10.69 GHz
     lambda(    6)=  0.0174   gamma=   32.14 GHz
     lambda(    7)=  0.0174   gamma=   32.12 GHz
     lambda(    8)=  0.0345   gamma=   65.92 GHz
     lambda(    9)=  0.0006   gamma=    1.25 GHz
     lambda(   10)=  0.0059   gamma=   14.33 GHz
     lambda(   11)=  0.0059   gamma=   14.34 GHz
     lambda(   12)=  0.0228   gamma=   71.26 GHz
     lambda(   13)=  0.0181   gamma=   79.77 GHz
     lambda(   14)=  0.0067   gamma=   38.41 GHz
     lambda(   15)=  0.0067   gamma=   38.43 GHz
     lambda(   16)=  0.0061   gamma=   40.55 GHz
     lambda(   17)=  0.0094   gamma=   62.90 GHz
     lambda(   18)=  0.0094   gamma=   62.89 GHz
     lambda(   19)=  0.0116   gamma=   81.82 GHz
     lambda(   20)=  0.0116   gamma=   81.84 GHz
     lambda(   21)=  0.0018   gamma=   13.02 GHz
     lambda(   22)=  0.0037   gamma=   28.46 GHz
     lambda(   23)=  0.0037   gamma=   28.46 GHz
     lambda(   24)=  0.0088   gamma=   70.74 GHz
     Gaussian Broadening:   0.060 Ry, ngauss=   0
     DOS =  6.721461 states/spin/Ry/Unit Cell at Ef= 17.005634 eV
     lambda(    1)= -0.3213   gamma=  839.44 GHz
     lambda(    2)= -0.2922   gamma=  289.49 GHz
     lambda(    3)= -0.2922   gamma=  289.52 GHz
     lambda(    4)=  0.0099   gamma=   10.55 GHz
     lambda(    5)=  0.0099   gamma=   10.55 GHz
     lambda(    6)=  0.0175   gamma=   31.93 GHz
     lambda(    7)=  0.0174   gamma=   31.91 GHz
     lambda(    8)=  0.0348   gamma=   65.99 GHz
     lambda(    9)=  0.0007   gamma=    1.36 GHz
     lambda(   10)=  0.0058   gamma=   14.01 GHz
     lambda(   11)=  0.0058   gamma=   14.02 GHz
     lambda(   12)=  0.0227   gamma=   70.40 GHz
     lambda(   13)=  0.0174   gamma=   76.23 GHz
     lambda(   14)=  0.0068   gamma=   38.67 GHz
     lambda(   15)=  0.0068   gamma=   38.69 GHz
     lambda(   16)=  0.0059   gamma=   39.34 GHz
     lambda(   17)=  0.0094   gamma=   62.65 GHz
     lambda(   18)=  0.0094   gamma=   62.64 GHz
     lambda(   19)=  0.0113   gamma=   79.35 GHz
     lambda(   20)=  0.0113   gamma=   79.36 GHz
     lambda(   21)=  0.0019   gamma=   13.78 GHz
     lambda(   22)=  0.0038   gamma=   29.10 GHz
     lambda(   23)=  0.0038   gamma=   29.09 GHz
     lambda(   24)=  0.0087   gamma=   69.91 GHz
     Gaussian Broadening:   0.065 Ry, ngauss=   0
     DOS =  6.666856 states/spin/Ry/Unit Cell at Ef= 16.981287 eV
     lambda(    1)= -0.3086   gamma=  799.67 GHz
     lambda(    2)= -0.2917   gamma=  286.65 GHz
     lambda(    3)= -0.2918   gamma=  286.69 GHz
     lambda(    4)=  0.0098   gamma=   10.40 GHz
     lambda(    5)=  0.0099   gamma=   10.41 GHz
     lambda(    6)=  0.0174   gamma=   31.60 GHz
     lambda(    7)=  0.0174   gamma=   31.59 GHz
     lambda(    8)=  0.0350   gamma=   65.88 GHz
     lambda(    9)=  0.0007   gamma=    1.47 GHz
     lambda(   10)=  0.0058   gamma=   13.68 GHz
     lambda(   11)=  0.0058   gamma=   13.69 GHz
     lambda(   12)=  0.0226   gamma=   69.33 GHz
     lambda(   13)=  0.0167   gamma=   72.78 GHz
     lambda(   14)=  0.0068   gamma=   38.76 GHz
     lambda(   15)=  0.0068   gamma=   38.78 GHz
     lambda(   16)=  0.0058   gamma=   38.10 GHz
     lambda(   17)=  0.0095   gamma=   62.57 GHz
     lambda(   18)=  0.0095   gamma=   62.57 GHz
     lambda(   19)=  0.0111   gamma=   76.84 GHz
     lambda(   20)=  0.0111   gamma=   76.86 GHz
     lambda(   21)=  0.0020   gamma=   14.69 GHz
     lambda(   22)=  0.0039   gamma=   29.73 GHz
     lambda(   23)=  0.0039   gamma=   29.73 GHz
     lambda(   24)=  0.0087   gamma=   68.98 GHz
     Gaussian Broadening:   0.070 Ry, ngauss=   0
     DOS =  6.607845 states/spin/Ry/Unit Cell at Ef= 16.955837 eV
     lambda(    1)= -0.2963   gamma=  761.08 GHz
     lambda(    2)= -0.2910   gamma=  283.46 GHz
     lambda(    3)= -0.2911   gamma=  283.50 GHz
     lambda(    4)=  0.0098   gamma=   10.26 GHz
     lambda(    5)=  0.0098   gamma=   10.26 GHz
     lambda(    6)=  0.0174   gamma=   31.21 GHz
     lambda(    7)=  0.0174   gamma=   31.20 GHz
     lambda(    8)=  0.0352   gamma=   65.63 GHz
     lambda(    9)=  0.0008   gamma=    1.58 GHz
     lambda(   10)=  0.0057   gamma=   13.37 GHz
     lambda(   11)=  0.0057   gamma=   13.38 GHz
     lambda(   12)=  0.0224   gamma=   68.16 GHz
     lambda(   13)=  0.0161   gamma=   69.49 GHz
     lambda(   14)=  0.0069   gamma=   38.72 GHz
     lambda(   15)=  0.0069   gamma=   38.74 GHz
     lambda(   16)=  0.0057   gamma=   36.88 GHz
     lambda(   17)=  0.0096   gamma=   62.66 GHz
     lambda(   18)=  0.0096   gamma=   62.66 GHz
     lambda(   19)=  0.0108   gamma=   74.42 GHz
     lambda(   20)=  0.0108   gamma=   74.44 GHz
     lambda(   21)=  0.0022   gamma=   15.71 GHz
     lambda(   22)=  0.0040   gamma=   30.37 GHz
     lambda(   23)=  0.0040   gamma=   30.37 GHz
     lambda(   24)=  0.0087   gamma=   68.02 GHz
     Gaussian Broadening:   0.075 Ry, ngauss=   0
     DOS =  6.546139 states/spin/Ry/Unit Cell at Ef= 16.929269 eV
     lambda(    1)= -0.2846   gamma=  724.20 GHz
     lambda(    2)= -0.2904   gamma=  280.18 GHz
     lambda(    3)= -0.2904   gamma=  280.22 GHz
     lambda(    4)=  0.0098   gamma=   10.13 GHz
     lambda(    5)=  0.0098   gamma=   10.14 GHz
     lambda(    6)=  0.0173   gamma=   30.80 GHz
     lambda(    7)=  0.0173   gamma=   30.79 GHz
     lambda(    8)=  0.0353   gamma=   65.27 GHz
     lambda(    9)=  0.0009   gamma=    1.69 GHz
     lambda(   10)=  0.0056   gamma=   13.08 GHz
     lambda(   11)=  0.0056   gamma=   13.10 GHz
     lambda(   12)=  0.0222   gamma=   66.93 GHz
     lambda(   13)=  0.0156   gamma=   66.41 GHz
     lambda(   14)=  0.0069   gamma=   38.60 GHz
     lambda(   15)=  0.0069   gamma=   38.62 GHz
     lambda(   16)=  0.0055   gamma=   35.71 GHz
     lambda(   17)=  0.0097   gamma=   62.89 GHz
     lambda(   18)=  0.0097   gamma=   62.89 GHz
     lambda(   19)=  0.0106   gamma=   72.14 GHz
     lambda(   20)=  0.0106   gamma=   72.16 GHz
     lambda(   21)=  0.0024   gamma=   16.84 GHz
     lambda(   22)=  0.0041   gamma=   31.00 GHz
     lambda(   23)=  0.0041   gamma=   31.00 GHz
     lambda(   24)=  0.0086   gamma=   67.06 GHz
 
 
     Number of q in the star =    4
     List of q in the star:
          1   0.331051900   0.331051900   0.331051900
          2   0.331051900  -0.331051900  -0.331051900
          3  -0.331051900  -0.331051900   0.331051900
          4  -0.331051900   0.331051900  -0.331051900
     In addition there is the -q list: 
          1  -0.331051900  -0.331051900  -0.331051900
          2  -0.331051900   0.331051900   0.331051900
          3   0.331051900   0.331051900  -0.331051900
          4   0.331051900  -0.331051900   0.331051900
 
     init_run     :      0.62s CPU      0.44s WALL (       3 calls)
     electrons    :   1755.30s CPU    920.21s WALL (       3 calls)

     Called by init_run:
     wfcinit      :      0.01s CPU      0.01s WALL (       3 calls)
     potinit      :      0.06s CPU      0.04s WALL (       3 calls)
     hinit0       :      0.31s CPU      0.17s WALL (       3 calls)

     Called by electrons:
     c_bands      :   1755.06s CPU    920.09s WALL (       3 calls)
     v_of_rho     :      0.05s CPU      0.03s WALL (       4 calls)
     newd         :      0.06s CPU      0.03s WALL (       4 calls)

     Called by c_bands:
     init_us_2    :     83.07s CPU     46.15s WALL (  646080 calls)
     cegterg      :   1650.00s CPU    863.12s WALL (   12374 calls)

     Called by sum_band:

     Called by *egterg:
     h_psi        :  32111.86s CPU  17025.37s WALL ( 9341638 calls)
     s_psi        :   1004.79s CPU    533.28s WALL (19008021 calls)
     g_psi        :      3.02s CPU      1.57s WALL (  156841 calls)
     cdiaghg      :    773.95s CPU    401.34s WALL (  163721 calls)

     Called by h_psi:
     h_psi:pot    :  31954.28s CPU  16939.99s WALL ( 9341638 calls)
     h_psi:calbec :    833.36s CPU    443.16s WALL ( 9341638 calls)
     vloc_psi     :  30445.77s CPU  16138.38s WALL ( 9341638 calls)
     add_vuspsi   :    496.76s CPU    266.98s WALL ( 9341638 calls)

     General routines
     calbec       :   1730.41s CPU    919.65s WALL (19986501 calls)
     fft          :     10.54s CPU      5.57s WALL (   11796 calls)
     ffts         :     26.08s CPU     13.58s WALL (  107658 calls)
     fftw         :  34717.14s CPU  18442.35s WALL (******** calls)
     interpolate  :      1.26s CPU      0.68s WALL (    1128 calls)
     davcio       :    669.16s CPU    600.29s WALL ( 2715160 calls)
 
     Parallel routines
     fft_scatt_xy :   3571.45s CPU   1889.87s WALL (******** calls)
     fft_scatt_yz :  19360.38s CPU  10311.69s WALL (******** calls)
 
     PHONON       :     14h53m CPU      8h45m WALL

     INITIALIZATION: 
     phq_setup    :      0.21s CPU      0.15s WALL (       4 calls)
     phq_init     :    378.55s CPU    204.33s WALL (       4 calls)
 
     phq_init     :    378.55s CPU    204.33s WALL (       4 calls)
     set_drhoc    :      1.74s CPU      0.89s WALL (      12 calls)
     init_vloc    :      0.02s CPU      0.01s WALL (       4 calls)
     init_us_1    :      0.16s CPU      0.09s WALL (       4 calls)
     newd         :      0.06s CPU      0.03s WALL (       4 calls)
     dvanqq       :      3.36s CPU      1.69s WALL (       4 calls)
     drho         :    343.96s CPU    185.37s WALL (       4 calls)
 
     DYNAMICAL MATRIX:
     dynmat0      :     20.05s CPU     10.80s WALL (       4 calls)
     phqscf       :  45652.13s CPU  24576.67s WALL (       4 calls)
     dynmatrix    :      0.09s CPU      0.10s WALL (       4 calls)
 
     phqscf       :  45652.13s CPU  24576.67s WALL (       4 calls)
     solve_linter :  45432.55s CPU  24449.86s WALL (      73 calls)
     drhodv       :    217.22s CPU    119.50s WALL (      73 calls)
 
     dynmat0      :     20.05s CPU     10.80s WALL (       4 calls)
     dynmat_us    :     18.73s CPU     10.11s WALL (       4 calls)
     d2ionq       :      0.12s CPU      0.06s WALL (       4 calls)
     dynmatcc     :      1.18s CPU      0.60s WALL (       4 calls)
 
     dynmat_us    :     18.73s CPU     10.11s WALL (       4 calls)
     addusdynmat  :      0.00s CPU      0.00s WALL (       4 calls)
 
     phqscf       :  45652.13s CPU  24576.67s WALL (       4 calls)
     solve_linter :  45432.55s CPU  24449.86s WALL (      73 calls)
 
     solve_linter :  45432.55s CPU  24449.86s WALL (      73 calls)
     dvqpsi_us    :   1045.65s CPU    547.43s WALL (   85440 calls)
     ortho        :    334.44s CPU    176.90s WALL (  500840 calls)
     cgsolve      :  35047.00s CPU  18589.35s WALL (  500840 calls)
     incdrhoscf   :   3259.38s CPU   1737.49s WALL (  500840 calls)
     addusddens   :     15.71s CPU      8.18s WALL (     486 calls)
     vpsifft      :   2931.00s CPU   1577.78s WALL (  415400 calls)
     dv_of_drho   :      5.50s CPU      2.92s WALL (     508 calls)
     mix_pot      :      6.55s CPU      5.45s WALL (     413 calls)
     ef_shift     :      1.84s CPU      2.00s WALL (      44 calls)
     localdos     :      6.86s CPU      3.65s WALL (       9 calls)
     psymdvscf    :     51.64s CPU     30.21s WALL (     413 calls)
     newdq        :     14.72s CPU      7.42s WALL (     413 calls)
     adddvscf     :    194.98s CPU    103.85s WALL (  500840 calls)
     drhodvus     :      2.61s CPU      1.81s WALL (      73 calls)
 
     dvqpsi_us    :   1045.65s CPU    547.43s WALL (   85440 calls)
     dvqpsi_us_on :    348.99s CPU    179.05s WALL (   85440 calls)
 
     cgsolve      :  35047.00s CPU  18589.35s WALL (  500840 calls)
     ch_psi       :  34492.69s CPU  18292.05s WALL ( 9165543 calls)
 
     ch_psi       :  34492.69s CPU  18292.05s WALL ( 9165543 calls)
     h_psi        :  32111.86s CPU  17025.37s WALL ( 9341638 calls)
     last         :   2273.63s CPU   1207.98s WALL ( 9165543 calls)
 
     h_psi        :  32111.86s CPU  17025.37s WALL ( 9341638 calls)
     add_vuspsi   :    496.76s CPU    266.98s WALL ( 9341638 calls)
 
     incdrhoscf   :   3259.38s CPU   1737.49s WALL (  500840 calls)
     addusdbec    :     91.43s CPU     48.21s WALL (  586280 calls)
 
     drhodvus     :      2.61s CPU      1.81s WALL (      73 calls)
 
      General routines
     calbec       :   1730.41s CPU    919.65s WALL (19986501 calls)
     fft          :     10.54s CPU      5.57s WALL (   11796 calls)
     ffts         :     26.08s CPU     13.58s WALL (  107658 calls)
     fftw         :  34717.14s CPU  18442.35s WALL (******** calls)
     davcio       :    669.16s CPU    600.29s WALL ( 2715160 calls)
     write_rec    :      5.65s CPU     10.64s WALL (     486 calls)
 
 
     PHONON       :     14h53m CPU      8h45m WALL

 
   This run was terminated on:  10:35:48  30Mar2020            

=------------------------------------------------------------------------------=
   JOB DONE.
=------------------------------------------------------------------------------=
mpprun info: Elapsed time (h:m:s):  8:45:20.576849
